 Entering Gaussian System, Link 0=g09
 Input=H2O.com
 Output=H2O.log
 Initial command:
 /home/mtaweb/g09/l1.exe /home/mtaweb/anmol/MESTIMIZER/test/Gau-2131.inp -scrdir=/home/mtaweb/anmol/MESTIMIZER/test/
 Entering Link 1 = /home/mtaweb/g09/l1.exe PID=      2132.
  
 Copyright (c) 1988,1990,1992,1993,1995,1998,2003,2009, Gaussian, Inc.
                  All Rights Reserved.
  
 This is part of the Gaussian(R) 09 program.  It is based on
 the Gaussian(R) 03 system (copyright 2003, Gaussian, Inc.),
 the Gaussian(R) 98 system (copyright 1998, Gaussian, Inc.),
 the Gaussian(R) 94 system (copyright 1995, Gaussian, Inc.),
 the Gaussian 92(TM) system (copyright 1992, Gaussian, Inc.),
 the Gaussian 90(TM) system (copyright 1990, Gaussian, Inc.),
 the Gaussian 88(TM) system (copyright 1988, Gaussian, Inc.),
 the Gaussian 86(TM) system (copyright 1986, Carnegie Mellon
 University), and the Gaussian 82(TM) system (copyright 1983,
 Carnegie Mellon University). Gaussian is a federally registered
 trademark of Gaussian, Inc.
  
 This software contains proprietary and confidential information,
 including trade secrets, belonging to Gaussian, Inc.
  
 This software is provided under written license and may be
 used, copied, transmitted, or stored only in accord with that
 written license.
  
 The following legend is applicable only to US Government
 contracts under FAR:
  
                    RESTRICTED RIGHTS LEGEND
  
 Use, reproduction and disclosure by the US Government is
 subject to restrictions as set forth in subparagraphs (a)
 and (c) of the Commercial Computer Software - Restricted
 Rights clause in FAR 52.227-19.
  
 Gaussian, Inc.
 340 Quinnipiac St., Bldg. 40, Wallingford CT 06492
  
  
 ---------------------------------------------------------------
 Warning -- This program may not be used in any manner that
 competes with the business of Gaussian, Inc. or will provide
 assistance to any competitor of Gaussian, Inc.  The licensee
 of this program is prohibited from giving any competitor of
 Gaussian, Inc. access to this program.  By using this program,
 the user acknowledges that Gaussian, Inc. is engaged in the
 business of creating and licensing software in the field of
 computational chemistry and represents and warrants to the
 licensee that it is not a competitor of Gaussian, Inc. and that
 it will not use this program in any manner prohibited above.
 ---------------------------------------------------------------
  

 Cite this work as:
 Gaussian 09, Revision A.02,
 M. J. Frisch, G. W. Trucks, H. B. Schlegel, G. E. Scuseria, 
 M. A. Robb, J. R. Cheeseman, G. Scalmani, V. Barone, B. Mennucci, 
 G. A. Petersson, H. Nakatsuji, M. Caricato, X. Li, H. P. Hratchian, 
 A. F. Izmaylov, J. Bloino, G. Zheng, J. L. Sonnenberg, M. Hada, 
 M. Ehara, K. Toyota, R. Fukuda, J. Hasegawa, M. Ishida, T. Nakajima, 
 Y. Honda, O. Kitao, H. Nakai, T. Vreven, J. A. Montgomery, Jr., 
 J. E. Peralta, F. Ogliaro, M. Bearpark, J. J. Heyd, E. Brothers, 
 K. N. Kudin, V. N. Staroverov, R. Kobayashi, J. Normand, 
 K. Raghavachari, A. Rendell, J. C. Burant, S. S. Iyengar, J. Tomasi, 
 M. Cossi, N. Rega, J. M. Millam, M. Klene, J. E. Knox, J. B. Cross, 
 V. Bakken, C. Adamo, J. Jaramillo, R. Gomperts, R. E. Stratmann, 
 O. Yazyev, A. J. Austin, R. Cammi, C. Pomelli, J. W. Ochterski, 
 R. L. Martin, K. Morokuma, V. G. Zakrzewski, G. A. Voth, 
 P. Salvador, J. J. Dannenberg, S. Dapprich, A. D. Daniels, 
 O. Farkas, J. B. Foresman, J. V. Ortiz, J. Cioslowski, 
 and D. J. Fox, Gaussian, Inc., Wallingford CT, 2009.
 
 ******************************************
 Gaussian 09:  EM64L-G09RevA.02 11-Jun-2009
                16-Jan-2017 
 ******************************************
 %chk=H2O.chk
 %nprocLinda=1
 Will use up to    1 processors via Linda.
 %nprocShared=4
 Will use up to    4 processors via shared memory.
 --------------------------------------
 #p HF/6-31+G(d) 5d 7f opt pop=(chelpg)
 --------------------------------------
 1/18=20,19=15,38=1/1,3;
 2/9=110,12=2,17=6,18=5,40=1/2;
 3/5=1,6=6,7=11,8=11,11=9,16=1,25=1,30=1,71=1/1,2,3;
 4//1;
 5/5=2,38=5/2;
 6/7=2,8=2,9=2,10=2,15=8,20=3,28=1/1,2;
 7//1,2,3,16;
 1/18=20,19=15/3(2);
 2/9=110/2;
 99//99;
 2/9=110/2;
 3/5=1,6=6,7=11,8=11,11=9,16=1,25=1,30=1,71=1/1,2,3;
 4/5=5,16=3/1;
 5/5=2,38=5/2;
 7//1,2,3,16;
 1/18=20,19=15/3(-5);
 2/9=110/2;
 6/7=2,8=2,9=2,10=2,15=8,19=2,20=3,28=1/1,2;
 99/9=1/99;
 Leave Link    1 at Mon Jan 16 22:57:12 2017, MaxMem=          0 cpu:       0.1
 (Enter /home/mtaweb/g09/l101.exe)
 ---
 H2O
 ---
 Symbolic Z-matrix:
 Charge =  0 Multiplicity = 1
 O                     0.        0.11896   0. 
 H                     0.75309  -0.4757    0. 
 H                    -0.75309  -0.47596   0. 
 
 NAtoms=      3 NQM=      3 NQMF=      0 NMic=      0 NMicF=      0 NTot=      3.
                    Isotopes and Nuclear Properties:
 (Nuclear quadrupole moments (NQMom) in fm**2, nuclear magnetic moments (NMagM)
  in nuclear magnetons)

  Atom         1           2           3
 IAtWgt=          16           1           1
 AtmWgt=  15.9949146   1.0078250   1.0078250
 NucSpn=           0           1           1
 AtZEff=   0.0000000   0.0000000   0.0000000
 NQMom=    0.0000000   0.0000000   0.0000000
 NMagM=    0.0000000   2.7928460   2.7928460
 Leave Link  101 at Mon Jan 16 22:57:12 2017, MaxMem=   33554432 cpu:       0.4
 (Enter /home/mtaweb/g09/l103.exe)

 GradGradGradGradGradGradGradGradGradGradGradGradGradGradGradGradGradGrad
 Berny optimization.
 Initialization pass.
                           ----------------------------
                           !    Initial Parameters    !
                           ! (Angstroms and Degrees)  !
 --------------------------                            --------------------------
 ! Name  Definition              Value          Derivative Info.                !
 --------------------------------------------------------------------------------
 ! R1    R(1,2)                  0.9596         estimate D2E/DX2                !
 ! R2    R(1,3)                  0.9597         estimate D2E/DX2                !
 ! A1    A(2,1,3)              103.3971         estimate D2E/DX2                !
 --------------------------------------------------------------------------------
 Trust Radius=3.00D-01 FncErr=1.00D-07 GrdErr=1.00D-07
 Number of steps in this run=  20 maximum allowed number of steps= 100.
 GradGradGradGradGradGradGradGradGradGradGradGradGradGradGradGradGradGrad

 Leave Link  103 at Mon Jan 16 22:57:12 2017, MaxMem=   33554432 cpu:       0.2
 (Enter /home/mtaweb/g09/l202.exe)
                          Input orientation:                          
 ---------------------------------------------------------------------
 Center     Atomic      Atomic             Coordinates (Angstroms)
 Number     Number       Type             X           Y           Z
 ---------------------------------------------------------------------
      1          8           0        0.000000    0.118958    0.000000
      2          1           0        0.753093   -0.475704    0.000000
      3          1           0       -0.753093   -0.475957    0.000000
 ---------------------------------------------------------------------
                    Distance matrix (angstroms):
                    1          2          3
     1  O    0.000000
     2  H    0.959569   0.000000
     3  H    0.959725   1.506186   0.000000
 Stoichiometry    H2O
 Framework group  CS[SG(H2O)]
 Deg. of freedom     3
 Full point group                 CS      NOp   2
 Largest Abelian subgroup         CS      NOp   2
 Largest concise Abelian subgroup C1      NOp   1
                         Standard orientation:                         
 ---------------------------------------------------------------------
 Center     Atomic      Atomic             Coordinates (Angstroms)
 Number     Number       Type             X           Y           Z
 ---------------------------------------------------------------------
      1          8           0        0.000000    0.118958    0.000000
      2          1           0        0.753093   -0.475704    0.000000
      3          1           0       -0.753093   -0.475957    0.000000
 ---------------------------------------------------------------------
 Rotational constants (GHZ):    798.0357775    442.0840111    284.4877251
 Leave Link  202 at Mon Jan 16 22:57:13 2017, MaxMem=   33554432 cpu:       0.0
 (Enter /home/mtaweb/g09/l301.exe)
 Standard basis: 6-31+G(d) (5D, 7F)
 Ernie: Thresh=  0.10000D-02 Tol=  0.10000D-05 Strict=F.
 There are    17 symmetry adapted basis functions of A'  symmetry.
 There are     5 symmetry adapted basis functions of A"  symmetry.
 Integral buffers will be    131072 words long.
 Raffenetti 1 integral format.
 Two-electron integral symmetry is turned on.
    22 basis functions,    40 primitive gaussians,    23 cartesian basis functions
     5 alpha electrons        5 beta electrons
       nuclear repulsion energy         9.1741999912 Hartrees.
 IExCor=    0 DFT=F Ex=HF Corr=None ExCW=0 ScaHFX=  1.000000
 ScaDFX=  1.000000  1.000000  1.000000  1.000000 ScalE2=  1.000000  1.000000
 IRadAn=      0 IRanWt=     -1 IRanGd=            0 ICorTp=0
 NAtoms=    3 NActive=    3 NUniq=    3 SFac= 7.50D-01 NAtFMM=   80 NAOKFM=F Big=F
 Leave Link  301 at Mon Jan 16 22:57:13 2017, MaxMem=   33554432 cpu:       0.3
 (Enter /home/mtaweb/g09/l302.exe)
 NPDir=0 NMtPBC=     1 NCelOv=     1 NCel=       1 NClECP=     1 NCelD=      1
         NCelK=      1 NCelE2=     1 NClLst=     1 CellRange=     0.0.
 One-electron integrals computed using PRISM.
 NBasis=    22 RedAO= T  NBF=    17     5
 NBsUse=    22 1.00D-06 NBFU=    17     5
 Leave Link  302 at Mon Jan 16 22:57:13 2017, MaxMem=   33554432 cpu:       0.7
 (Enter /home/mtaweb/g09/l303.exe)
 DipDrv:  MaxL=1.
 Leave Link  303 at Mon Jan 16 22:57:13 2017, MaxMem=   33554432 cpu:       0.4
 (Enter /home/mtaweb/g09/l401.exe)
 Harris functional with IExCor=  205 diagonalized for initial guess.
 ExpMin= 8.45D-02 ExpMax= 5.48D+03 ExpMxC= 8.25D+02 IAcc=2 IRadAn=         0 AccDes= 0.00D+00
 HarFok:  IExCor=  205 AccDes= 0.00D+00 IRadAn=         0 IDoV= 1
 ScaDFX=  1.000000  1.000000  1.000000  1.000000
 FoFCou: FMM=F IPFlag=           0 FMFlag=      100000 FMFlg1=           0
         NFxFlg=           0 DoJE=T BraDBF=F KetDBF=T FulRan=T
         Omega=  0.000000  0.000000  1.000000  0.000000  0.000000 ICntrl=     500 IOpCl=  0
         NMat0=    1 NMatS0=    1 NMatT0=    0 NMatD0=    1 NMtDS0=    0 NMtDT0=    0
         I1Cent=           4 NGrid=           0.
 Petite list used in FoFCou.
 Harris En= -76.1081578625271    
 Initial guess orbital symmetries:
       Occupied  (A') (A') (A') (A') (A")
       Virtual   (A') (A') (A') (A") (A') (A') (A') (A') (A") (A')
                 (A') (A') (A') (A") (A") (A') (A')
 The electronic state of the initial guess is 1-A'.
 Leave Link  401 at Mon Jan 16 22:57:14 2017, MaxMem=   33554432 cpu:       0.9
 (Enter /home/mtaweb/g09/l502.exe)
 Closed shell SCF:
 Requested convergence on RMS density matrix=1.00D-08 within 128 cycles.
 Requested convergence on MAX density matrix=1.00D-06.
 Requested convergence on             energy=1.00D-06.
 No special actions if energy rises.
 Using DIIS extrapolation, IDIIS=  1040.
 Integral symmetry usage will be decided dynamically.
 Keep R1 ints in memory in canonical form, NReq=878295.
 IEnd=       20055 IEndB=       20055 NGot=    33554432 MDV=    33513316
 LenX=    33513316 LenY=    33512346
 Symmetry not used in FoFDir.
 MinBra= 0 MaxBra= 2 Meth= 1.
 IRaf=       0 NMat=   1 IRICut=       1 DoRegI=T DoRafI=F ISym2E= 0 JSym2E=0.

 Cycle   1  Pass 1  IDiag  1:
 E= -75.9394708086660    
 DIIS: error= 7.03D-02 at cycle   1 NSaved=   1.
 NSaved= 1 IEnMin= 1 EnMin= -75.9394708086660     IErMin= 1 ErrMin= 7.03D-02
 ErrMax= 7.03D-02 EMaxC= 1.00D-01 BMatC= 1.10D-01 BMatP= 1.10D-01
 IDIUse=3 WtCom= 2.97D-01 WtEn= 7.03D-01
 Coeff-Com:  0.100D+01
 Coeff-En:   0.100D+01
 Coeff:      0.100D+01
 Gap=     0.551 Goal=   None    Shift=    0.000
 GapD=    0.551 DampG=2.000 DampE=0.500 DampFc=1.0000 IDamp=-1.
 RMSDP=1.24D-02 MaxDP=1.17D-01              OVMax= 1.21D-01

 Cycle   2  Pass 1  IDiag  1:
 E= -75.9852190148513     Delta-E=       -0.045748206185 Rises=F Damp=F
 DIIS: error= 4.51D-02 at cycle   2 NSaved=   2.
 NSaved= 2 IEnMin= 2 EnMin= -75.9852190148513     IErMin= 2 ErrMin= 4.51D-02
 ErrMax= 4.51D-02 EMaxC= 1.00D-01 BMatC= 4.31D-02 BMatP= 1.10D-01
 IDIUse=3 WtCom= 5.49D-01 WtEn= 4.51D-01
 Coeff-Com:  0.376D+00 0.624D+00
 Coeff-En:   0.194D+00 0.806D+00
 Coeff:      0.294D+00 0.706D+00
 Gap=     0.673 Goal=   None    Shift=    0.000
 RMSDP=5.92D-03 MaxDP=5.58D-02 DE=-4.57D-02 OVMax= 5.76D-02

 Cycle   3  Pass 1  IDiag  1:
 E= -76.0150452183879     Delta-E=       -0.029826203537 Rises=F Damp=F
 DIIS: error= 8.50D-03 at cycle   3 NSaved=   3.
 NSaved= 3 IEnMin= 3 EnMin= -76.0150452183879     IErMin= 3 ErrMin= 8.50D-03
 ErrMax= 8.50D-03 EMaxC= 1.00D-01 BMatC= 1.27D-03 BMatP= 4.31D-02
 IDIUse=3 WtCom= 9.15D-01 WtEn= 8.50D-02
 Coeff-Com: -0.355D-01 0.105D+00 0.931D+00
 Coeff-En:   0.000D+00 0.000D+00 0.100D+01
 Coeff:     -0.325D-01 0.959D-01 0.937D+00
 Gap=     0.655 Goal=   None    Shift=    0.000
 RMSDP=9.56D-04 MaxDP=9.18D-03 DE=-2.98D-02 OVMax= 1.01D-02

 Cycle   4  Pass 1  IDiag  1:
 E= -76.0160228815803     Delta-E=       -0.000977663192 Rises=F Damp=F
 DIIS: error= 9.32D-04 at cycle   4 NSaved=   4.
 NSaved= 4 IEnMin= 4 EnMin= -76.0160228815803     IErMin= 4 ErrMin= 9.32D-04
 ErrMax= 9.32D-04 EMaxC= 1.00D-01 BMatC= 9.65D-06 BMatP= 1.27D-03
 IDIUse=3 WtCom= 9.91D-01 WtEn= 9.32D-03
 Coeff-Com:  0.624D-02-0.490D-01-0.274D+00 0.132D+01
 Coeff-En:   0.000D+00 0.000D+00 0.000D+00 0.100D+01
 Coeff:      0.618D-02-0.485D-01-0.272D+00 0.131D+01
 Gap=     0.657 Goal=   None    Shift=    0.000
 RMSDP=1.97D-04 MaxDP=1.50D-03 DE=-9.78D-04 OVMax= 1.99D-03

 Cycle   5  Pass 1  IDiag  1:
 E= -76.0160407526990     Delta-E=       -0.000017871119 Rises=F Damp=F
 DIIS: error= 1.77D-04 at cycle   5 NSaved=   5.
 NSaved= 5 IEnMin= 5 EnMin= -76.0160407526990     IErMin= 5 ErrMin= 1.77D-04
 ErrMax= 1.77D-04 EMaxC= 1.00D-01 BMatC= 2.62D-07 BMatP= 9.65D-06
 IDIUse=3 WtCom= 9.98D-01 WtEn= 1.77D-03
 Coeff-Com:  0.150D-03 0.519D-02 0.188D-01-0.277D+00 0.125D+01
 Coeff-En:   0.000D+00 0.000D+00 0.000D+00 0.000D+00 0.100D+01
 Coeff:      0.149D-03 0.518D-02 0.187D-01-0.277D+00 0.125D+01
 Gap=     0.657 Goal=   None    Shift=    0.000
 RMSDP=4.91D-05 MaxDP=3.81D-04 DE=-1.79D-05 OVMax= 4.83D-04

 Cycle   6  Pass 1  IDiag  1:
 E= -76.0160415471327     Delta-E=       -0.000000794434 Rises=F Damp=F
 DIIS: error= 3.50D-05 at cycle   6 NSaved=   6.
 NSaved= 6 IEnMin= 6 EnMin= -76.0160415471327     IErMin= 6 ErrMin= 3.50D-05
 ErrMax= 3.50D-05 EMaxC= 1.00D-01 BMatC= 1.04D-08 BMatP= 2.62D-07
 IDIUse=1 WtCom= 1.00D+00 WtEn= 0.00D+00
 Coeff-Com: -0.307D-03 0.111D-02 0.854D-02 0.143D-02-0.299D+00 0.129D+01
 Coeff:     -0.307D-03 0.111D-02 0.854D-02 0.143D-02-0.299D+00 0.129D+01
 Gap=     0.658 Goal=   None    Shift=    0.000
 RMSDP=9.66D-06 MaxDP=8.99D-05 DE=-7.94D-07 OVMax= 1.13D-04

 Cycle   7  Pass 1  IDiag  1:
 E= -76.0160415788565     Delta-E=       -0.000000031724 Rises=F Damp=F
 DIIS: error= 6.34D-06 at cycle   7 NSaved=   7.
 NSaved= 7 IEnMin= 7 EnMin= -76.0160415788565     IErMin= 7 ErrMin= 6.34D-06
 ErrMax= 6.34D-06 EMaxC= 1.00D-01 BMatC= 3.70D-10 BMatP= 1.04D-08
 IDIUse=1 WtCom= 1.00D+00 WtEn= 0.00D+00
 Coeff-Com:  0.118D-03-0.632D-03-0.427D-02 0.101D-01 0.793D-01-0.514D+00
 Coeff-Com:  0.143D+01
 Coeff:      0.118D-03-0.632D-03-0.427D-02 0.101D-01 0.793D-01-0.514D+00
 Coeff:      0.143D+01
 Gap=     0.658 Goal=   None    Shift=    0.000
 RMSDP=1.67D-06 MaxDP=1.58D-05 DE=-3.17D-08 OVMax= 2.10D-05

 Cycle   8  Pass 1  IDiag  1:
 E= -76.0160415798146     Delta-E=       -0.000000000958 Rises=F Damp=F
 DIIS: error= 8.59D-07 at cycle   8 NSaved=   8.
 NSaved= 8 IEnMin= 8 EnMin= -76.0160415798146     IErMin= 8 ErrMin= 8.59D-07
 ErrMax= 8.59D-07 EMaxC= 1.00D-01 BMatC= 6.48D-12 BMatP= 3.70D-10
 IDIUse=1 WtCom= 1.00D+00 WtEn= 0.00D+00
 Coeff-Com: -0.242D-04 0.148D-03 0.987D-03-0.318D-02-0.136D-01 0.112D+00
 Coeff-Com: -0.405D+00 0.131D+01
 Coeff:     -0.242D-04 0.148D-03 0.987D-03-0.318D-02-0.136D-01 0.112D+00
 Coeff:     -0.405D+00 0.131D+01
 Gap=     0.658 Goal=   None    Shift=    0.000
 RMSDP=2.06D-07 MaxDP=1.62D-06 DE=-9.58D-10 OVMax= 2.12D-06

 Cycle   9  Pass 1  IDiag  1:
 E= -76.0160415798294     Delta-E=       -0.000000000015 Rises=F Damp=F
 DIIS: error= 8.88D-08 at cycle   9 NSaved=   9.
 NSaved= 9 IEnMin= 9 EnMin= -76.0160415798294     IErMin= 9 ErrMin= 8.88D-08
 ErrMax= 8.88D-08 EMaxC= 1.00D-01 BMatC= 1.56D-13 BMatP= 6.48D-12
 IDIUse=1 WtCom= 1.00D+00 WtEn= 0.00D+00
 Coeff-Com:  0.183D-05-0.144D-04-0.946D-04 0.478D-03 0.452D-03-0.960D-02
 Coeff-Com:  0.525D-01-0.316D+00 0.127D+01
 Coeff:      0.183D-05-0.144D-04-0.946D-04 0.478D-03 0.452D-03-0.960D-02
 Coeff:      0.525D-01-0.316D+00 0.127D+01
 Gap=     0.658 Goal=   None    Shift=    0.000
 RMSDP=5.46D-08 MaxDP=2.86D-07 DE=-1.47D-11 OVMax= 3.97D-07

 Cycle  10  Pass 1  IDiag  1:
 E= -76.0160415798298     Delta-E=        0.000000000000 Rises=F Damp=F
 DIIS: error= 2.19D-08 at cycle  10 NSaved=  10.
 NSaved=10 IEnMin=10 EnMin= -76.0160415798298     IErMin=10 ErrMin= 2.19D-08
 ErrMax= 2.19D-08 EMaxC= 1.00D-01 BMatC= 7.71D-15 BMatP= 1.56D-13
 IDIUse=1 WtCom= 1.00D+00 WtEn= 0.00D+00
 Coeff-Com:  0.172D-06 0.165D-06 0.114D-05-0.787D-04 0.390D-03-0.581D-03
 Coeff-Com: -0.451D-02 0.583D-01-0.389D+00 0.134D+01
 Coeff:      0.172D-06 0.165D-06 0.114D-05-0.787D-04 0.390D-03-0.581D-03
 Coeff:     -0.451D-02 0.583D-01-0.389D+00 0.134D+01
 Gap=     0.658 Goal=   None    Shift=    0.000
 RMSDP=8.44D-09 MaxDP=4.48D-08 DE=-4.12D-13 OVMax= 9.70D-08

 SCF Done:  E(RHF) =  -76.0160415798     A.U. after   10 cycles
             Convg  =    0.8440D-08             -V/T =  2.0012
 KE= 7.592647803297D+01 PE=-1.988089613845D+02 EE= 3.769224178044D+01
 Leave Link  502 at Mon Jan 16 22:57:15 2017, MaxMem=   33554432 cpu:       0.6
 (Enter /home/mtaweb/g09/l601.exe)
 Copying SCF densities to generalized density rwf, IOpCl= 0 IROHF=0.

 **********************************************************************

            Population analysis using the SCF density.

 **********************************************************************

 Orbital symmetries:
       Occupied  (A') (A') (A') (A') (A")
       Virtual   (A') (A') (A") (A') (A') (A') (A') (A') (A') (A")
                 (A') (A') (A') (A") (A") (A') (A')
 The electronic state is 1-A'.
 Alpha  occ. eigenvalues --  -20.57591  -1.35709  -0.71931  -0.58702  -0.50967
 Alpha virt. eigenvalues --    0.14787   0.22123   0.25269   0.25402   0.35025
 Alpha virt. eigenvalues --    0.38895   1.22358   1.37483   1.39254   1.40431
 Alpha virt. eigenvalues --    1.42013   1.71183   2.00355   2.01971   2.05206
 Alpha virt. eigenvalues --    2.62628   3.01141
          Condensed to atoms (all electrons):
              1          2          3
     1  O    8.543972   0.232401   0.232417
     2  H    0.232401   0.287284  -0.024104
     3  H    0.232417  -0.024104   0.287315
 Mulliken atomic charges:
              1
     1  O   -1.008790
     2  H    0.504418
     3  H    0.504372
 Sum of Mulliken atomic charges =   0.00000
 Mulliken charges with hydrogens summed into heavy atoms:
              1
     1  O    0.000000
 Sum of Mulliken charges with hydrogens summed into heavy atoms =   0.00000
 Electronic spatial extent (au):  <R**2>=             19.5947
 Charge=              0.0000 electrons
 Dipole moment (field-independent basis, Debye):
    X=              0.0001    Y=             -2.3524    Z=              0.0000  Tot=              2.3524
 Quadrupole moment (field-independent basis, Debye-Ang):
   XX=             -4.2540   YY=             -6.2441   ZZ=             -7.6903
   XY=              0.0004   XZ=              0.0000   YZ=              0.0000
 Traceless Quadrupole moment (field-independent basis, Debye-Ang):
   XX=              1.8088   YY=             -0.1813   ZZ=             -1.6275
   XY=              0.0004   XZ=              0.0000   YZ=              0.0000
 Octapole moment (field-independent basis, Debye-Ang**2):
  XXX=              0.0003  YYY=             -1.7544  ZZZ=              0.0000  XYY=             -0.0003
  XXY=             -1.5093  XXZ=              0.0000  XZZ=              0.0001  YZZ=             -0.4901
  YYZ=              0.0000  XYZ=              0.0000
 Hexadecapole moment (field-independent basis, Debye-Ang**3):
 XXXX=             -5.6770 YYYY=             -7.1301 ZZZZ=             -6.7914 XXXY=              0.0000
 XXXZ=              0.0000 YYYX=              0.0001 YYYZ=              0.0000 ZZZX=              0.0000
 ZZZY=              0.0000 XXYY=             -1.7777 XXZZ=             -2.3442 YYZZ=             -2.3754
 XXYZ=              0.0000 YYXZ=              0.0000 ZZXY=             -0.0001
 N-N= 9.174199991240D+00 E-N=-1.988089615851D+02  KE= 7.592647803297D+01
 Symmetry A'   KE= 7.145753988916D+01
 Symmetry A"   KE= 4.468938143812D+00
 No NMR shielding tensors so no spin-rotation constants.
 Leave Link  601 at Mon Jan 16 22:57:15 2017, MaxMem=   33554432 cpu:       0.8
 (Enter /home/mtaweb/g09/l602.exe)
 Breneman (CHELPG) radii used.
 Generate Potential Derived Charges using the Breneman model, NDens= 1.
 Grid spacing= 0.300 Box extension= 2.800
 NStep X,Y,Z=   25     21     20   Total possible points=       10500
 Number of Points to Fit=    4004

 **********************************************************************

            Electrostatic Properties Using The SCF Density

 **********************************************************************

       Atomic Center    1 is at   0.000000  0.118958  0.000000
       Atomic Center    2 is at   0.753093 -0.475704  0.000000
       Atomic Center    3 is at  -0.753093 -0.475957  0.000000
    4004 points will be used for fitting atomic charges
 Fitting point charges to electrostatic potential
 Charges from ESP fit, RMS=   0.00329 RRMS=   0.13475:
 Charge=   0.00000 Dipole=     0.0001    -2.3933     0.0000 Tot=     2.3933
              1
     1  O   -0.837742
     2  H    0.418888
     3  H    0.418854
 -----------------------------------------------------------------

              Electrostatic Properties (Atomic Units)

 -----------------------------------------------------------------
    Center     Electric         -------- Electric Field --------
               Potential          X             Y             Z
 -----------------------------------------------------------------
    1 Atom    -22.312463
    2 Atom     -0.980441
    3 Atom     -0.980416
 -----------------------------------------------------------------
 Leave Link  602 at Mon Jan 16 22:57:15 2017, MaxMem=   33554432 cpu:       0.3
 (Enter /home/mtaweb/g09/l701.exe)
 Compute integral first derivatives.
 ... and contract with generalized density number  0.
 Leave Link  701 at Mon Jan 16 22:57:16 2017, MaxMem=   33554432 cpu:       0.8
 (Enter /home/mtaweb/g09/l702.exe)
 L702 exits ... SP integral derivatives will be done elsewhere.
 Leave Link  702 at Mon Jan 16 22:57:16 2017, MaxMem=   33554432 cpu:       0.1
 (Enter /home/mtaweb/g09/l703.exe)
 Compute integral first derivatives, UseDBF=F ICtDFT=           0.
 Integral derivatives from FoFDir, PRISM(SPDF).
 Calling FoFJK, ICntrl=      2127 FMM=F ISym2X=1 I1Cent= 0 IOpClX= 0 NMat=1 NMatS=1 NMatT=0.
 FoFCou: FMM=F IPFlag=           0 FMFlag=      100000 FMFlg1=         800
         NFxFlg=           0 DoJE=F BraDBF=F KetDBF=F FulRan=T
         Omega=  0.000000  0.000000  1.000000  0.000000  0.000000 ICntrl=    2127 IOpCl=  0
         NMat0=    1 NMatS0=    1 NMatT0=    0 NMatD0=    1 NMtDS0=    0 NMtDT0=    0
         I1Cent=           0 NGrid=           0.
 Petite list used in FoFCou.
 Leave Link  703 at Mon Jan 16 22:57:16 2017, MaxMem=   33554432 cpu:       0.8
 (Enter /home/mtaweb/g09/l716.exe)
 Dipole        = 4.62640479D-05-9.25500885D-01 2.58601240D-37
 ***** Axes restored to original set *****
 -------------------------------------------------------------------
 Center     Atomic                   Forces (Hartrees/Bohr)
 Number     Number              X              Y              Z
 -------------------------------------------------------------------
      1        8          -0.000129525   -0.022186652    0.000000000
      2        1          -0.005912980    0.011041173    0.000000000
      3        1           0.006042506    0.011145479    0.000000000
 -------------------------------------------------------------------
 Cartesian Forces:  Max     0.022186652 RMS     0.009486064
 Leave Link  716 at Mon Jan 16 22:57:16 2017, MaxMem=   33554432 cpu:       0.1
 (Enter /home/mtaweb/g09/l103.exe)

 GradGradGradGradGradGradGradGradGradGradGradGradGradGradGradGradGradGrad
 Berny optimization.
 Internal  Forces:  Max     0.011650396 RMS     0.010798594
 Search for a local minimum.
 Step number   1 out of a maximum of   20
 All quantities printed in internal units (Hartrees-Bohrs-Radians)
 RMS Force = .10799D-01 SwitMx=.10000D-02 MixMth= 1
 Mixed Optimization -- RFO/linear search
 Second derivative matrix not updated -- first step.
 The second derivative matrix:
                          R1        R2        A1
           R1           0.55566
           R2           0.00000   0.55532
           A1           0.00000   0.00000   0.16000
     Eigenvalues ---    0.16000   0.55532   0.55566
 RFO step:  Lambda=-9.91675104D-04 EMin= 1.60000000D-01
 Linear search not attempted -- first point.
 Iteration  1 RMS(Cart)=  0.02788575 RMS(Int)=  0.00069456
 Iteration  2 RMS(Cart)=  0.00073384 RMS(Int)=  0.00000014
 Iteration  3 RMS(Cart)=  0.00000011 RMS(Int)=  0.00000000
 ClnCor:  largest displacement from symmetrization is 1.29D-15 for atom     2.
 Variable       Old X    -DE/DX   Delta X   Delta X   Delta X     New X
                                 (Linear)    (Quad)   (Total)
    R1        1.81332  -0.01148   0.00000  -0.02063  -0.02063   1.79269
    R2        1.81362  -0.01165   0.00000  -0.02094  -0.02094   1.79268
    A1        1.80462   0.00907   0.00000   0.05633   0.05633   1.86095
         Item               Value     Threshold  Converged?
 Maximum Force            0.011650     0.000450     NO 
 RMS     Force            0.010799     0.000300     NO 
 Maximum Displacement     0.035294     0.001800     NO 
 RMS     Displacement     0.027594     0.001200     NO 
 Predicted change in Energy=-4.978392D-04
 GradGradGradGradGradGradGradGradGradGradGradGradGradGradGradGradGradGrad

 Leave Link  103 at Mon Jan 16 22:57:16 2017, MaxMem=   33554432 cpu:       0.3
 (Enter /home/mtaweb/g09/l202.exe)
                          Input orientation:                          
 ---------------------------------------------------------------------
 Center     Atomic      Atomic             Coordinates (Angstroms)
 Number     Number       Type             X           Y           Z
 ---------------------------------------------------------------------
      1          8           0       -0.000056    0.100281    0.000000
      2          1           0        0.760752   -0.466387    0.000000
      3          1           0       -0.760696   -0.466598    0.000000
 ---------------------------------------------------------------------
                    Distance matrix (angstroms):
                    1          2          3
     1  O    0.000000
     2  H    0.948652   0.000000
     3  H    0.948643   1.521447   0.000000
 Stoichiometry    H2O
 Framework group  CS[SG(H2O)]
 Deg. of freedom     3
 Full point group                 CS      NOp   2
 Largest Abelian subgroup         CS      NOp   2
 Largest concise Abelian subgroup C1      NOp   1
                         Standard orientation:                         
 ---------------------------------------------------------------------
 Center     Atomic      Atomic             Coordinates (Angstroms)
 Number     Number       Type             X           Y           Z
 ---------------------------------------------------------------------
      1          8           0        0.000000    0.113355    0.000000
      2          1           0        0.760724   -0.453426    0.000000
      3          1           0       -0.760724   -0.453411    0.000000
 ---------------------------------------------------------------------
 Rotational constants (GHZ):    878.8772292    433.2596062    290.1999181
 Leave Link  202 at Mon Jan 16 22:57:16 2017, MaxMem=   33554432 cpu:       0.0
 (Enter /home/mtaweb/g09/l301.exe)
 Standard basis: 6-31+G(d) (5D, 7F)
 Ernie: Thresh=  0.10000D-02 Tol=  0.10000D-05 Strict=F.
 There are    17 symmetry adapted basis functions of A'  symmetry.
 There are     5 symmetry adapted basis functions of A"  symmetry.
 Integral buffers will be    131072 words long.
 Raffenetti 1 integral format.
 Two-electron integral symmetry is turned on.
    22 basis functions,    40 primitive gaussians,    23 cartesian basis functions
     5 alpha electrons        5 beta electrons
       nuclear repulsion energy         9.2729728652 Hartrees.
 IExCor=    0 DFT=F Ex=HF Corr=None ExCW=0 ScaHFX=  1.000000
 ScaDFX=  1.000000  1.000000  1.000000  1.000000 ScalE2=  1.000000  1.000000
 IRadAn=      0 IRanWt=     -1 IRanGd=            0 ICorTp=0
 NAtoms=    3 NActive=    3 NUniq=    3 SFac= 7.50D-01 NAtFMM=   80 NAOKFM=F Big=F
 Leave Link  301 at Mon Jan 16 22:57:16 2017, MaxMem=   33554432 cpu:       0.2
 (Enter /home/mtaweb/g09/l302.exe)
 NPDir=0 NMtPBC=     1 NCelOv=     1 NCel=       1 NClECP=     1 NCelD=      1
         NCelK=      1 NCelE2=     1 NClLst=     1 CellRange=     0.0.
 One-electron integrals computed using PRISM.
 NBasis=    22 RedAO= T  NBF=    17     5
 NBsUse=    22 1.00D-06 NBFU=    17     5
 Leave Link  302 at Mon Jan 16 22:57:17 2017, MaxMem=   33554432 cpu:       0.5
 (Enter /home/mtaweb/g09/l303.exe)
 DipDrv:  MaxL=1.
 Leave Link  303 at Mon Jan 16 22:57:17 2017, MaxMem=   33554432 cpu:       0.1
 (Enter /home/mtaweb/g09/l401.exe)
 Initial guess read from the read-write file.
 B after Tr=     0.000000    0.000000    0.000000
         Rot=    1.000000    0.000000    0.000000    0.000000 Ang=   0.00 deg.
 Guess basis will be translated and rotated to current coordinates.
 Initial guess orbital symmetries:
       Occupied  (A') (A') (A') (A') (A")
       Virtual   (A') (A') (A") (A') (A') (A') (A') (A') (A') (A")
                 (A') (A') (A') (A") (A") (A') (A')
 The electronic state of the initial guess is 1-A'.
 Generating alternative initial guess.
 Harris functional with IExCor=  205 diagonalized for initial guess.
 ExpMin= 8.45D-02 ExpMax= 5.48D+03 ExpMxC= 8.25D+02 IAcc=2 IRadAn=         0 AccDes= 0.00D+00
 HarFok:  IExCor=  205 AccDes= 0.00D+00 IRadAn=         0 IDoV= 1
 ScaDFX=  1.000000  1.000000  1.000000  1.000000
 FoFCou: FMM=F IPFlag=           0 FMFlag=      100000 FMFlg1=           0
         NFxFlg=           0 DoJE=T BraDBF=F KetDBF=T FulRan=T
         Omega=  0.000000  0.000000  1.000000  0.000000  0.000000 ICntrl=     500 IOpCl=  0
         NMat0=    1 NMatS0=    1 NMatT0=    0 NMatD0=    1 NMtDS0=    0 NMtDT0=    0
         I1Cent=           4 NGrid=           0.
 Petite list used in FoFCou.
 Harris En= -76.1087791218124    
 Leave Link  401 at Mon Jan 16 22:57:17 2017, MaxMem=   33554432 cpu:       0.8
 (Enter /home/mtaweb/g09/l502.exe)
 Closed shell SCF:
 Requested convergence on RMS density matrix=1.00D-08 within 128 cycles.
 Requested convergence on MAX density matrix=1.00D-06.
 Requested convergence on             energy=1.00D-06.
 No special actions if energy rises.
 Using DIIS extrapolation, IDIIS=  1040.
 Integral symmetry usage will be decided dynamically.
 Keep R1 ints in memory in canonical form, NReq=878295.
 IEnd=       20055 IEndB=       20055 NGot=    33554432 MDV=    33513316
 LenX=    33513316 LenY=    33512346
 Symmetry not used in FoFDir.
 MinBra= 0 MaxBra= 2 Meth= 1.
 IRaf=       0 NMat=   1 IRICut=       1 DoRegI=T DoRafI=F ISym2E= 0 JSym2E=0.

 Cycle   1  Pass 1  IDiag  1:
 E= -76.0163183472717    
 DIIS: error= 2.75D-03 at cycle   1 NSaved=   1.
 NSaved= 1 IEnMin= 1 EnMin= -76.0163183472717     IErMin= 1 ErrMin= 2.75D-03
 ErrMax= 2.75D-03 EMaxC= 1.00D-01 BMatC= 1.84D-04 BMatP= 1.84D-04
 IDIUse=3 WtCom= 9.72D-01 WtEn= 2.75D-02
 Coeff-Com:  0.100D+01
 Coeff-En:   0.100D+01
 Coeff:      0.100D+01
 Gap=     0.663 Goal=   None    Shift=    0.000
 GapD=    0.663 DampG=2.000 DampE=1.000 DampFc=2.0000 IDamp=-1.
 RMSDP=7.12D-04 MaxDP=3.44D-03              OVMax= 5.21D-03

 Cycle   2  Pass 1  IDiag  1:
 E= -76.0165174223039     Delta-E=       -0.000199075032 Rises=F Damp=F
 DIIS: error= 1.11D-03 at cycle   2 NSaved=   2.
 NSaved= 2 IEnMin= 2 EnMin= -76.0165174223039     IErMin= 2 ErrMin= 1.11D-03
 ErrMax= 1.11D-03 EMaxC= 1.00D-01 BMatC= 2.72D-05 BMatP= 1.84D-04
 IDIUse=3 WtCom= 9.89D-01 WtEn= 1.11D-02
 Coeff-Com:  0.907D-01 0.909D+00
 Coeff-En:   0.000D+00 0.100D+01
 Coeff:      0.896D-01 0.910D+00
 Gap=     0.658 Goal=   None    Shift=    0.000
 RMSDP=2.06D-04 MaxDP=1.87D-03 DE=-1.99D-04 OVMax= 1.81D-03

 Cycle   3  Pass 1  IDiag  1:
 E= -76.0165408959336     Delta-E=       -0.000023473630 Rises=F Damp=F
 DIIS: error= 5.83D-04 at cycle   3 NSaved=   3.
 NSaved= 3 IEnMin= 3 EnMin= -76.0165408959336     IErMin= 3 ErrMin= 5.83D-04
 ErrMax= 5.83D-04 EMaxC= 1.00D-01 BMatC= 4.85D-06 BMatP= 2.72D-05
 IDIUse=3 WtCom= 9.94D-01 WtEn= 5.83D-03
 Coeff-Com: -0.112D+00 0.227D+00 0.884D+00
 Coeff-En:   0.000D+00 0.000D+00 0.100D+01
 Coeff:     -0.111D+00 0.226D+00 0.885D+00
 Gap=     0.659 Goal=   None    Shift=    0.000
 RMSDP=1.12D-04 MaxDP=6.85D-04 DE=-2.35D-05 OVMax= 1.12D-03

 Cycle   4  Pass 1  IDiag  1:
 E= -76.0165465557527     Delta-E=       -0.000005659819 Rises=F Damp=F
 DIIS: error= 8.59D-05 at cycle   4 NSaved=   4.
 NSaved= 4 IEnMin= 4 EnMin= -76.0165465557527     IErMin= 4 ErrMin= 8.59D-05
 ErrMax= 8.59D-05 EMaxC= 1.00D-01 BMatC= 1.10D-07 BMatP= 4.85D-06
 IDIUse=1 WtCom= 1.00D+00 WtEn= 0.00D+00
 Coeff-Com:  0.386D-01-0.125D+00-0.331D+00 0.142D+01
 Coeff:      0.386D-01-0.125D+00-0.331D+00 0.142D+01
 Gap=     0.659 Goal=   None    Shift=    0.000
 RMSDP=3.85D-05 MaxDP=2.03D-04 DE=-5.66D-06 OVMax= 4.29D-04

 Cycle   5  Pass 1  IDiag  1:
 E= -76.0165468949922     Delta-E=       -0.000000339240 Rises=F Damp=F
 DIIS: error= 1.48D-05 at cycle   5 NSaved=   5.
 NSaved= 5 IEnMin= 5 EnMin= -76.0165468949922     IErMin= 5 ErrMin= 1.48D-05
 ErrMax= 1.48D-05 EMaxC= 1.00D-01 BMatC= 2.78D-09 BMatP= 1.10D-07
 IDIUse=1 WtCom= 1.00D+00 WtEn= 0.00D+00
 Coeff-Com: -0.713D-02 0.267D-01 0.640D-01-0.387D+00 0.130D+01
 Coeff:     -0.713D-02 0.267D-01 0.640D-01-0.387D+00 0.130D+01
 Gap=     0.659 Goal=   None    Shift=    0.000
 RMSDP=5.31D-06 MaxDP=3.69D-05 DE=-3.39D-07 OVMax= 6.73D-05

 Cycle   6  Pass 1  IDiag  1:
 E= -76.0165469041095     Delta-E=       -0.000000009117 Rises=F Damp=F
 DIIS: error= 3.71D-06 at cycle   6 NSaved=   6.
 NSaved= 6 IEnMin= 6 EnMin= -76.0165469041095     IErMin= 6 ErrMin= 3.71D-06
 ErrMax= 3.71D-06 EMaxC= 1.00D-01 BMatC= 1.24D-10 BMatP= 2.78D-09
 IDIUse=1 WtCom= 1.00D+00 WtEn= 0.00D+00
 Coeff-Com: -0.447D-03 0.727D-03 0.262D-02 0.880D-02-0.259D+00 0.125D+01
 Coeff:     -0.447D-03 0.727D-03 0.262D-02 0.880D-02-0.259D+00 0.125D+01
 Gap=     0.659 Goal=   None    Shift=    0.000
 RMSDP=1.04D-06 MaxDP=8.93D-06 DE=-9.12D-09 OVMax= 1.32D-05

 Cycle   7  Pass 1  IDiag  1:
 E= -76.0165469044756     Delta-E=       -0.000000000366 Rises=F Damp=F
 DIIS: error= 5.79D-07 at cycle   7 NSaved=   7.
 NSaved= 7 IEnMin= 7 EnMin= -76.0165469044756     IErMin= 7 ErrMin= 5.79D-07
 ErrMax= 5.79D-07 EMaxC= 1.00D-01 BMatC= 4.21D-12 BMatP= 1.24D-10
 IDIUse=1 WtCom= 1.00D+00 WtEn= 0.00D+00
 Coeff-Com:  0.397D-03-0.118D-02-0.316D-02 0.131D-01 0.114D-01-0.296D+00
 Coeff-Com:  0.128D+01
 Coeff:      0.397D-03-0.118D-02-0.316D-02 0.131D-01 0.114D-01-0.296D+00
 Coeff:      0.128D+01
 Gap=     0.659 Goal=   None    Shift=    0.000
 RMSDP=1.66D-07 MaxDP=1.41D-06 DE=-3.66D-10 OVMax= 2.26D-06

 Cycle   8  Pass 1  IDiag  1:
 E= -76.0165469044861     Delta-E=       -0.000000000011 Rises=F Damp=F
 DIIS: error= 5.81D-08 at cycle   8 NSaved=   8.
 NSaved= 8 IEnMin= 8 EnMin= -76.0165469044861     IErMin= 8 ErrMin= 5.81D-08
 ErrMax= 5.81D-08 EMaxC= 1.00D-01 BMatC= 6.86D-14 BMatP= 4.21D-12
 IDIUse=1 WtCom= 1.00D+00 WtEn= 0.00D+00
 Coeff-Com: -0.566D-04 0.175D-03 0.495D-03-0.244D-02 0.443D-02 0.229D-01
 Coeff-Com: -0.227D+00 0.120D+01
 Coeff:     -0.566D-04 0.175D-03 0.495D-03-0.244D-02 0.443D-02 0.229D-01
 Coeff:     -0.227D+00 0.120D+01
 Gap=     0.659 Goal=   None    Shift=    0.000
 RMSDP=4.09D-08 MaxDP=3.46D-07 DE=-1.05D-11 OVMax= 2.49D-07

 Cycle   9  Pass 1  IDiag  1:
 E= -76.0165469044863     Delta-E=        0.000000000000 Rises=F Damp=F
 DIIS: error= 8.44D-09 at cycle   9 NSaved=   9.
 NSaved= 9 IEnMin= 9 EnMin= -76.0165469044863     IErMin= 9 ErrMin= 8.44D-09
 ErrMax= 8.44D-09 EMaxC= 1.00D-01 BMatC= 1.34D-15 BMatP= 6.86D-14
 IDIUse=1 WtCom= 1.00D+00 WtEn= 0.00D+00
 Coeff-Com:  0.813D-05-0.259D-04-0.758D-04 0.414D-03-0.118D-02-0.207D-02
 Coeff-Com:  0.424D-01-0.333D+00 0.129D+01
 Coeff:      0.813D-05-0.259D-04-0.758D-04 0.414D-03-0.118D-02-0.207D-02
 Coeff:      0.424D-01-0.333D+00 0.129D+01
 Gap=     0.659 Goal=   None    Shift=    0.000
 RMSDP=7.09D-09 MaxDP=4.94D-08 DE=-1.28D-13 OVMax= 2.93D-08

 SCF Done:  E(RHF) =  -76.0165469045     A.U. after    9 cycles
             Convg  =    0.7085D-08             -V/T =  2.0006
 KE= 7.596718550066D+01 PE=-1.990326526164D+02 EE= 3.777594734603D+01
 Leave Link  502 at Mon Jan 16 22:57:17 2017, MaxMem=   33554432 cpu:       0.3
 (Enter /home/mtaweb/g09/l701.exe)
 Compute integral first derivatives.
 ... and contract with generalized density number  0.
 Leave Link  701 at Mon Jan 16 22:57:17 2017, MaxMem=   33554432 cpu:       0.5
 (Enter /home/mtaweb/g09/l702.exe)
 L702 exits ... SP integral derivatives will be done elsewhere.
 Leave Link  702 at Mon Jan 16 22:57:17 2017, MaxMem=   33554432 cpu:       0.1
 (Enter /home/mtaweb/g09/l703.exe)
 Compute integral first derivatives, UseDBF=F ICtDFT=           0.
 Integral derivatives from FoFDir, PRISM(SPDF).
 Calling FoFJK, ICntrl=      2127 FMM=F ISym2X=1 I1Cent= 0 IOpClX= 0 NMat=1 NMatS=1 NMatT=0.
 FoFCou: FMM=F IPFlag=           0 FMFlag=      100000 FMFlg1=         800
         NFxFlg=           0 DoJE=F BraDBF=F KetDBF=F FulRan=T
         Omega=  0.000000  0.000000  1.000000  0.000000  0.000000 ICntrl=    2127 IOpCl=  0
         NMat0=    1 NMatS0=    1 NMatT0=    0 NMatD0=    1 NMtDS0=    0 NMtDT0=    0
         I1Cent=           0 NGrid=           0.
 Petite list used in FoFCou.
 Leave Link  703 at Mon Jan 16 22:57:17 2017, MaxMem=   33554432 cpu:       0.6
 (Enter /home/mtaweb/g09/l716.exe)
 Dipole        =-2.46064686D-06-8.97678445D-01 2.07988125D-37
 ***** Axes restored to original set *****
 -------------------------------------------------------------------
 Center     Atomic                   Forces (Hartrees/Bohr)
 Number     Number              X              Y              Z
 -------------------------------------------------------------------
      1        8           0.000008440   -0.000843041    0.000000000
      2        1          -0.001046336    0.000424473    0.000000000
      3        1           0.001037896    0.000418568    0.000000000
 -------------------------------------------------------------------
 Cartesian Forces:  Max     0.001046336 RMS     0.000599834
 Leave Link  716 at Mon Jan 16 22:57:17 2017, MaxMem=   33554432 cpu:       0.1
 (Enter /home/mtaweb/g09/l103.exe)

 GradGradGradGradGradGradGradGradGradGradGradGradGradGradGradGradGradGrad
 Berny optimization.
 Using GEDIIS/GDIIS optimizer.
 Internal  Forces:  Max     0.001092703 RMS     0.000935544
 Search for a local minimum.
 Step number   2 out of a maximum of   20
 All quantities printed in internal units (Hartrees-Bohrs-Radians)
 RMS Force = .93554D-03 SwitMx=.10000D-02 MixMth= 2
 Mixed Optimization -- En-DIIS/RFO-DIIS
 Update second derivatives using D2CorX and points    1    2
 DE= -5.05D-04 DEPred=-4.98D-04 R= 1.02D+00
 SS=  1.41D+00  RLast= 6.35D-02 DXNew= 5.0454D-01 1.9061D-01
 Trust test= 1.02D+00 RLast= 6.35D-02 DXMaxT set to 3.00D-01
 The second derivative matrix:
                          R1        R2        A1
           R1           0.53334
           R2          -0.02237   0.53291
           A1           0.00254   0.00232   0.17184
 Use linear search instead of GDIIS.
     Eigenvalues ---    0.17181   0.51079   0.55550
 RFO step:  Lambda=-5.81637976D-06 EMin= 1.71807434D-01
 Quartic linear search produced a step of  0.01676.
 Iteration  1 RMS(Cart)=  0.00268938 RMS(Int)=  0.00000251
 Iteration  2 RMS(Cart)=  0.00000166 RMS(Int)=  0.00000000
 Iteration  3 RMS(Cart)=  0.00000000 RMS(Int)=  0.00000000
 ClnCor:  largest displacement from symmetrization is 4.97D-16 for atom     2.
 Variable       Old X    -DE/DX   Delta X   Delta X   Delta X     New X
                                 (Linear)    (Quad)   (Total)
    R1        1.79269  -0.00109  -0.00035  -0.00178  -0.00212   1.79057
    R2        1.79268  -0.00108  -0.00035  -0.00176  -0.00211   1.79057
    A1        1.86095  -0.00051   0.00094  -0.00386  -0.00292   1.85803
         Item               Value     Threshold  Converged?
 Maximum Force            0.001093     0.000450     NO 
 RMS     Force            0.000936     0.000300     NO 
 Maximum Displacement     0.003261     0.001800     NO 
 RMS     Displacement     0.002689     0.001200     NO 
 Predicted change in Energy=-3.042658D-06
 GradGradGradGradGradGradGradGradGradGradGradGradGradGradGradGradGradGrad

 Leave Link  103 at Mon Jan 16 22:57:17 2017, MaxMem=   33554432 cpu:       0.0
 (Enter /home/mtaweb/g09/l202.exe)
                          Input orientation:                          
 ---------------------------------------------------------------------
 Center     Atomic      Atomic             Coordinates (Angstroms)
 Number     Number       Type             X           Y           Z
 ---------------------------------------------------------------------
      1          8           0       -0.000053    0.100575    0.000000
      2          1           0        0.759026   -0.466532    0.000000
      3          1           0       -0.758973   -0.466745    0.000000
 ---------------------------------------------------------------------
                    Distance matrix (angstroms):
                    1          2          3
     1  O    0.000000
     2  H    0.947529   0.000000
     3  H    0.947529   1.517999   0.000000
 Stoichiometry    H2O
 Framework group  CS[SG(H2O)]
 Deg. of freedom     3
 Full point group                 CS      NOp   2
 Largest Abelian subgroup         CS      NOp   2
 Largest concise Abelian subgroup C1      NOp   1
                         Standard orientation:                         
 ---------------------------------------------------------------------
 Center     Atomic      Atomic             Coordinates (Angstroms)
 Number     Number       Type             X           Y           Z
 ---------------------------------------------------------------------
      1          8           0        0.000000    0.113443    0.000000
      2          1           0        0.758999   -0.453771    0.000000
      3          1           0       -0.758999   -0.453771    0.000000
 ---------------------------------------------------------------------
 Rotational constants (GHZ):    877.5137535    435.2303468    290.9330274
 Leave Link  202 at Mon Jan 16 22:57:17 2017, MaxMem=   33554432 cpu:       0.0
 (Enter /home/mtaweb/g09/l301.exe)
 Standard basis: 6-31+G(d) (5D, 7F)
 Ernie: Thresh=  0.10000D-02 Tol=  0.10000D-05 Strict=F.
 There are    17 symmetry adapted basis functions of A'  symmetry.
 There are     5 symmetry adapted basis functions of A"  symmetry.
 Integral buffers will be    131072 words long.
 Raffenetti 1 integral format.
 Two-electron integral symmetry is turned on.
    22 basis functions,    40 primitive gaussians,    23 cartesian basis functions
     5 alpha electrons        5 beta electrons
       nuclear repulsion energy         9.2843004756 Hartrees.
 IExCor=    0 DFT=F Ex=HF Corr=None ExCW=0 ScaHFX=  1.000000
 ScaDFX=  1.000000  1.000000  1.000000  1.000000 ScalE2=  1.000000  1.000000
 IRadAn=      0 IRanWt=     -1 IRanGd=            0 ICorTp=0
 NAtoms=    3 NActive=    3 NUniq=    3 SFac= 7.50D-01 NAtFMM=   80 NAOKFM=F Big=F
 Leave Link  301 at Mon Jan 16 22:57:17 2017, MaxMem=   33554432 cpu:       0.2
 (Enter /home/mtaweb/g09/l302.exe)
 NPDir=0 NMtPBC=     1 NCelOv=     1 NCel=       1 NClECP=     1 NCelD=      1
         NCelK=      1 NCelE2=     1 NClLst=     1 CellRange=     0.0.
 One-electron integrals computed using PRISM.
 NBasis=    22 RedAO= T  NBF=    17     5
 NBsUse=    22 1.00D-06 NBFU=    17     5
 Leave Link  302 at Mon Jan 16 22:57:17 2017, MaxMem=   33554432 cpu:       0.5
 (Enter /home/mtaweb/g09/l303.exe)
 DipDrv:  MaxL=1.
 Leave Link  303 at Mon Jan 16 22:57:18 2017, MaxMem=   33554432 cpu:       0.1
 (Enter /home/mtaweb/g09/l401.exe)
 Initial guess read from the read-write file.
 B after Tr=     0.000000    0.000000    0.000000
         Rot=    1.000000    0.000000    0.000000    0.000000 Ang=   0.00 deg.
 Guess basis will be translated and rotated to current coordinates.
 Initial guess orbital symmetries:
       Occupied  (A') (A') (A') (A') (A")
       Virtual   (A') (A') (A") (A') (A') (A') (A') (A') (A') (A")
                 (A') (A') (A') (A") (A") (A') (A')
 The electronic state of the initial guess is 1-A'.
 Leave Link  401 at Mon Jan 16 22:57:18 2017, MaxMem=   33554432 cpu:       0.3
 (Enter /home/mtaweb/g09/l502.exe)
 Closed shell SCF:
 Requested convergence on RMS density matrix=1.00D-08 within 128 cycles.
 Requested convergence on MAX density matrix=1.00D-06.
 Requested convergence on             energy=1.00D-06.
 No special actions if energy rises.
 Using DIIS extrapolation, IDIIS=  1040.
 Integral symmetry usage will be decided dynamically.
 Keep R1 ints in memory in canonical form, NReq=878295.
 IEnd=       20055 IEndB=       20055 NGot=    33554432 MDV=    33513316
 LenX=    33513316 LenY=    33512346
 Symmetry not used in FoFDir.
 MinBra= 0 MaxBra= 2 Meth= 1.
 IRaf=       0 NMat=   1 IRICut=       1 DoRegI=T DoRafI=F ISym2E= 0 JSym2E=0.

 Cycle   1  Pass 1  IDiag  1:
 E= -76.0165481196619    
 DIIS: error= 1.78D-04 at cycle   1 NSaved=   1.
 NSaved= 1 IEnMin= 1 EnMin= -76.0165481196619     IErMin= 1 ErrMin= 1.78D-04
 ErrMax= 1.78D-04 EMaxC= 1.00D-01 BMatC= 1.22D-06 BMatP= 1.22D-06
 IDIUse=3 WtCom= 9.98D-01 WtEn= 1.78D-03
 Coeff-Com:  0.100D+01
 Coeff-En:   0.100D+01
 Coeff:      0.100D+01
 Gap=     0.659 Goal=   None    Shift=    0.000
 RMSDP=4.58D-05 MaxDP=2.37D-04              OVMax= 3.37D-04

 Cycle   2  Pass 1  IDiag  1:
 E= -76.0165490752299     Delta-E=       -0.000000955568 Rises=F Damp=F
 DIIS: error= 8.81D-05 at cycle   2 NSaved=   2.
 NSaved= 2 IEnMin= 2 EnMin= -76.0165490752299     IErMin= 2 ErrMin= 8.81D-05
 ErrMax= 8.81D-05 EMaxC= 1.00D-01 BMatC= 1.55D-07 BMatP= 1.22D-06
 IDIUse=1 WtCom= 1.00D+00 WtEn= 0.00D+00
 Coeff-Com:  0.166D+00 0.834D+00
 Coeff:      0.166D+00 0.834D+00
 Gap=     0.659 Goal=   None    Shift=    0.000
 RMSDP=1.38D-05 MaxDP=1.38D-04 DE=-9.56D-07 OVMax= 1.30D-04

 Cycle   3  Pass 1  IDiag  1:
 E= -76.0165491784895     Delta-E=       -0.000000103260 Rises=F Damp=F
 DIIS: error= 3.33D-05 at cycle   3 NSaved=   3.
 NSaved= 3 IEnMin= 3 EnMin= -76.0165491784895     IErMin= 3 ErrMin= 3.33D-05
 ErrMax= 3.33D-05 EMaxC= 1.00D-01 BMatC= 1.79D-08 BMatP= 1.55D-07
 IDIUse=1 WtCom= 1.00D+00 WtEn= 0.00D+00
 Coeff-Com: -0.424D-01 0.196D+00 0.847D+00
 Coeff:     -0.424D-01 0.196D+00 0.847D+00
 Gap=     0.659 Goal=   None    Shift=    0.000
 RMSDP=4.25D-06 MaxDP=3.62D-05 DE=-1.03D-07 OVMax= 5.31D-05

 Cycle   4  Pass 1  IDiag  1:
 E= -76.0165491949310     Delta-E=       -0.000000016441 Rises=F Damp=F
 DIIS: error= 6.34D-06 at cycle   4 NSaved=   4.
 NSaved= 4 IEnMin= 4 EnMin= -76.0165491949310     IErMin= 4 ErrMin= 6.34D-06
 ErrMax= 6.34D-06 EMaxC= 1.00D-01 BMatC= 4.16D-10 BMatP= 1.79D-08
 IDIUse=1 WtCom= 1.00D+00 WtEn= 0.00D+00
 Coeff-Com: -0.452D-02-0.477D-01-0.368D-01 0.109D+01
 Coeff:     -0.452D-02-0.477D-01-0.368D-01 0.109D+01
 Gap=     0.659 Goal=   None    Shift=    0.000
 RMSDP=1.58D-06 MaxDP=1.33D-05 DE=-1.64D-08 OVMax= 1.54D-05

 Cycle   5  Pass 1  IDiag  1:
 E= -76.0165491958250     Delta-E=       -0.000000000894 Rises=F Damp=F
 DIIS: error= 1.63D-06 at cycle   5 NSaved=   5.
 NSaved= 5 IEnMin= 5 EnMin= -76.0165491958250     IErMin= 5 ErrMin= 1.63D-06
 ErrMax= 1.63D-06 EMaxC= 1.00D-01 BMatC= 2.93D-11 BMatP= 4.16D-10
 IDIUse=1 WtCom= 1.00D+00 WtEn= 0.00D+00
 Coeff-Com:  0.350D-02 0.926D-02-0.260D-01-0.439D+00 0.145D+01
 Coeff:      0.350D-02 0.926D-02-0.260D-01-0.439D+00 0.145D+01
 Gap=     0.659 Goal=   None    Shift=    0.000
 RMSDP=6.22D-07 MaxDP=4.57D-06 DE=-8.94D-10 OVMax= 7.01D-06

 Cycle   6  Pass 1  IDiag  1:
 E= -76.0165491959246     Delta-E=       -0.000000000100 Rises=F Damp=F
 DIIS: error= 2.17D-07 at cycle   6 NSaved=   6.
 NSaved= 6 IEnMin= 6 EnMin= -76.0165491959246     IErMin= 6 ErrMin= 2.17D-07
 ErrMax= 2.17D-07 EMaxC= 1.00D-01 BMatC= 7.27D-13 BMatP= 2.93D-11
 IDIUse=1 WtCom= 1.00D+00 WtEn= 0.00D+00
 Coeff-Com: -0.128D-02-0.242D-02 0.109D-01 0.150D+00-0.589D+00 0.143D+01
 Coeff:     -0.128D-02-0.242D-02 0.109D-01 0.150D+00-0.589D+00 0.143D+01
 Gap=     0.659 Goal=   None    Shift=    0.000
 RMSDP=1.11D-07 MaxDP=6.61D-07 DE=-9.96D-11 OVMax= 9.31D-07

 Cycle   7  Pass 1  IDiag  1:
 E= -76.0165491959268     Delta-E=       -0.000000000002 Rises=F Damp=F
 DIIS: error= 2.77D-08 at cycle   7 NSaved=   7.
 NSaved= 7 IEnMin= 7 EnMin= -76.0165491959268     IErMin= 7 ErrMin= 2.77D-08
 ErrMax= 2.77D-08 EMaxC= 1.00D-01 BMatC= 1.00D-14 BMatP= 7.27D-13
 IDIUse=1 WtCom= 1.00D+00 WtEn= 0.00D+00
 Coeff-Com:  0.167D-03 0.329D-03-0.137D-02-0.208D-01 0.869D-01-0.297D+00
 Coeff-Com:  0.123D+01
 Coeff:      0.167D-03 0.329D-03-0.137D-02-0.208D-01 0.869D-01-0.297D+00
 Coeff:      0.123D+01
 Gap=     0.659 Goal=   None    Shift=    0.000
 RMSDP=1.72D-08 MaxDP=1.33D-07 DE=-2.16D-12 OVMax= 1.10D-07

 Cycle   8  Pass 1  IDiag  1:
 E= -76.0165491959268     Delta-E=        0.000000000000 Rises=F Damp=F
 DIIS: error= 6.60D-09 at cycle   8 NSaved=   8.
 NSaved= 8 IEnMin= 8 EnMin= -76.0165491959268     IErMin= 8 ErrMin= 6.60D-09
 ErrMax= 6.60D-09 EMaxC= 1.00D-01 BMatC= 3.62D-16 BMatP= 1.00D-14
 IDIUse=1 WtCom= 1.00D+00 WtEn= 0.00D+00
 Coeff-Com: -0.332D-04-0.754D-04 0.311D-03 0.438D-02-0.190D-01 0.776D-01
 Coeff-Com: -0.464D+00 0.140D+01
 Coeff:     -0.332D-04-0.754D-04 0.311D-03 0.438D-02-0.190D-01 0.776D-01
 Coeff:     -0.464D+00 0.140D+01
 Gap=     0.659 Goal=   None    Shift=    0.000
 RMSDP=1.88D-09 MaxDP=1.13D-08 DE=-1.42D-14 OVMax= 1.84D-08

 SCF Done:  E(RHF) =  -76.0165491959     A.U. after    8 cycles
             Convg  =    0.1880D-08             -V/T =  2.0006
 KE= 7.597224566807D+01 PE=-1.990572585923D+02 EE= 3.778416325269D+01
 Leave Link  502 at Mon Jan 16 22:57:18 2017, MaxMem=   33554432 cpu:       0.3
 (Enter /home/mtaweb/g09/l701.exe)
 Compute integral first derivatives.
 ... and contract with generalized density number  0.
 Leave Link  701 at Mon Jan 16 22:57:18 2017, MaxMem=   33554432 cpu:       0.5
 (Enter /home/mtaweb/g09/l702.exe)
 L702 exits ... SP integral derivatives will be done elsewhere.
 Leave Link  702 at Mon Jan 16 22:57:18 2017, MaxMem=   33554432 cpu:       0.1
 (Enter /home/mtaweb/g09/l703.exe)
 Compute integral first derivatives, UseDBF=F ICtDFT=           0.
 Integral derivatives from FoFDir, PRISM(SPDF).
 Calling FoFJK, ICntrl=      2127 FMM=F ISym2X=1 I1Cent= 0 IOpClX= 0 NMat=1 NMatS=1 NMatT=0.
 FoFCou: FMM=F IPFlag=           0 FMFlag=      100000 FMFlg1=         800
         NFxFlg=           0 DoJE=F BraDBF=F KetDBF=F FulRan=T
         Omega=  0.000000  0.000000  1.000000  0.000000  0.000000 ICntrl=    2127 IOpCl=  0
         NMat0=    1 NMatS0=    1 NMatT0=    0 NMatD0=    1 NMtDS0=    0 NMtDT0=    0
         I1Cent=           0 NGrid=           0.
 Petite list used in FoFCou.
 Leave Link  703 at Mon Jan 16 22:57:18 2017, MaxMem=   33554432 cpu:       0.6
 (Enter /home/mtaweb/g09/l716.exe)
 Dipole        =-1.54291422D-07-8.98459062D-01 0.00000000D+00
 ***** Axes restored to original set *****
 -------------------------------------------------------------------
 Center     Atomic                   Forces (Hartrees/Bohr)
 Number     Number              X              Y              Z
 -------------------------------------------------------------------
      1        8           0.000000499    0.000181842    0.000000000
      2        1           0.000255124   -0.000090689    0.000000000
      3        1          -0.000255623   -0.000091153    0.000000000
 -------------------------------------------------------------------
 Cartesian Forces:  Max     0.000255623 RMS     0.000141434
 Leave Link  716 at Mon Jan 16 22:57:18 2017, MaxMem=   33554432 cpu:       0.1
 (Enter /home/mtaweb/g09/l103.exe)

 GradGradGradGradGradGradGradGradGradGradGradGradGradGradGradGradGradGrad
 Berny optimization.
 Using GEDIIS/GDIIS optimizer.
 Internal  Forces:  Max     0.000259317 RMS     0.000227077
 Search for a local minimum.
 Step number   3 out of a maximum of   20
 All quantities printed in internal units (Hartrees-Bohrs-Radians)
 RMS Force = .22708D-03 SwitMx=.10000D-02 MixMth= 2
 Mixed Optimization -- En-DIIS/RFO-DIIS
 Swaping is turned off.
 Update second derivatives using D2CorX and points    1    2    3
 DE= -2.29D-06 DEPred=-3.04D-06 R= 7.53D-01
 SS=  1.41D+00  RLast= 4.18D-03 DXNew= 5.0454D-01 1.2536D-02
 Trust test= 7.53D-01 RLast= 4.18D-03 DXMaxT set to 3.00D-01
 The second derivative matrix:
                          R1        R2        A1
           R1           0.57735
           R2           0.02179   0.57722
           A1           0.02752   0.02732   0.18414
     Eigenvalues ---    0.18055   0.55549   0.60266
 En-DIIS/RFO-DIIS IScMMF=        0 using points:     3    2
 RFO step:  Lambda=-2.11903507D-07.
 DIIS coeffs:      0.80089      0.19911
 Iteration  1 RMS(Cart)=  0.00056192 RMS(Int)=  0.00000012
 Iteration  2 RMS(Cart)=  0.00000008 RMS(Int)=  0.00000000
 ClnCor:  largest displacement from symmetrization is 1.11D-16 for atom     2.
 Variable       Old X    -DE/DX   Delta X   Delta X   Delta X     New X
                                  (DIIS)     (GDIIS)  (Total)
    R1        1.79057   0.00026   0.00042  -0.00002   0.00040   1.79097
    R2        1.79057   0.00026   0.00042  -0.00002   0.00040   1.79097
    A1        1.85803   0.00014   0.00058   0.00008   0.00066   1.85869
         Item               Value     Threshold  Converged?
 Maximum Force            0.000259     0.000450     YES
 RMS     Force            0.000227     0.000300     YES
 Maximum Displacement     0.000675     0.001800     YES
 RMS     Displacement     0.000562     0.001200     YES
 Predicted change in Energy=-1.513525D-07
 Optimization completed.
    -- Stationary point found.
                           ----------------------------
                           !   Optimized Parameters   !
                           ! (Angstroms and Degrees)  !
 --------------------------                            --------------------------
 ! Name  Definition              Value          Derivative Info.                !
 --------------------------------------------------------------------------------
 ! R1    R(1,2)                  0.9475         -DE/DX =    0.0003              !
 ! R2    R(1,3)                  0.9475         -DE/DX =    0.0003              !
 ! A1    A(2,1,3)              106.4572         -DE/DX =    0.0001              !
 --------------------------------------------------------------------------------
 GradGradGradGradGradGradGradGradGradGradGradGradGradGradGradGradGradGrad

 Largest change from initial coordinates is atom    3       0.023 Angstoms.
 Leave Link  103 at Mon Jan 16 22:57:18 2017, MaxMem=   33554432 cpu:       0.0
 (Enter /home/mtaweb/g09/l202.exe)
                          Input orientation:                          
 ---------------------------------------------------------------------
 Center     Atomic      Atomic             Coordinates (Angstroms)
 Number     Number       Type             X           Y           Z
 ---------------------------------------------------------------------
      1          8           0       -0.000053    0.100575    0.000000
      2          1           0        0.759026   -0.466532    0.000000
      3          1           0       -0.758973   -0.466745    0.000000
 ---------------------------------------------------------------------
                    Distance matrix (angstroms):
                    1          2          3
     1  O    0.000000
     2  H    0.947529   0.000000
     3  H    0.947529   1.517999   0.000000
 Stoichiometry    H2O
 Framework group  CS[SG(H2O)]
 Deg. of freedom     3
 Full point group                 CS      NOp   2
 Largest Abelian subgroup         CS      NOp   2
 Largest concise Abelian subgroup C1      NOp   1
                         Standard orientation:                         
 ---------------------------------------------------------------------
 Center     Atomic      Atomic             Coordinates (Angstroms)
 Number     Number       Type             X           Y           Z
 ---------------------------------------------------------------------
      1          8           0        0.000000    0.113443    0.000000
      2          1           0        0.758999   -0.453771    0.000000
      3          1           0       -0.758999   -0.453771    0.000000
 ---------------------------------------------------------------------
 Rotational constants (GHZ):    877.5137535    435.2303468    290.9330274
 Leave Link  202 at Mon Jan 16 22:57:18 2017, MaxMem=   33554432 cpu:       0.0
 (Enter /home/mtaweb/g09/l601.exe)
 Copying SCF densities to generalized density rwf, IOpCl= 0 IROHF=0.

 **********************************************************************

            Population analysis using the SCF density.

 **********************************************************************

 Orbital symmetries:
       Occupied  (A') (A') (A') (A') (A")
       Virtual   (A') (A') (A") (A') (A') (A') (A') (A') (A') (A")
                 (A') (A') (A') (A") (A") (A') (A')
 The electronic state is 1-A'.
 Alpha  occ. eigenvalues --  -20.57216  -1.36115  -0.73209  -0.58324  -0.50971
 Alpha virt. eigenvalues --    0.14931   0.21903   0.25262   0.25397   0.35941
 Alpha virt. eigenvalues --    0.38839   1.24700   1.37693   1.38975   1.40472
 Alpha virt. eigenvalues --    1.40941   1.70724   2.00925   2.01393   2.05318
 Alpha virt. eigenvalues --    2.64478   3.03802
          Condensed to atoms (all electrons):
              1          2          3
     1  O    8.548147   0.235534   0.235534
     2  H    0.235534   0.277715  -0.022857
     3  H    0.235534  -0.022857   0.277715
 Mulliken atomic charges:
              1
     1  O   -1.019215
     2  H    0.509608
     3  H    0.509608
 Sum of Mulliken atomic charges =   0.00000
 Mulliken charges with hydrogens summed into heavy atoms:
              1
     1  O    0.000000
 Sum of Mulliken charges with hydrogens summed into heavy atoms =   0.00000
 Electronic spatial extent (au):  <R**2>=             19.4418
 Charge=              0.0000 electrons
 Dipole moment (field-independent basis, Debye):
    X=              0.0000    Y=             -2.2837    Z=              0.0000  Tot=              2.2837
 Quadrupole moment (field-independent basis, Debye-Ang):
   XX=             -4.1401   YY=             -6.3360   ZZ=             -7.6671
   XY=              0.0000   XZ=              0.0000   YZ=              0.0000
 Traceless Quadrupole moment (field-independent basis, Debye-Ang):
   XX=              1.9076   YY=             -0.2883   ZZ=             -1.6193
   XY=              0.0000   XZ=              0.0000   YZ=              0.0000
 Octapole moment (field-independent basis, Debye-Ang**2):
  XXX=              0.0000  YYY=             -1.6866  ZZZ=              0.0000  XYY=              0.0000
  XXY=             -1.4817  XXZ=              0.0000  XZZ=              0.0000  YZZ=             -0.4822
  YYZ=              0.0000  XYZ=              0.0000
 Hexadecapole moment (field-independent basis, Debye-Ang**3):
 XXXX=             -5.4950 YYYY=             -7.0603 ZZZZ=             -6.7690 XXXY=              0.0000
 XXXZ=              0.0000 YYYX=              0.0000 YYYZ=              0.0000 ZZZX=              0.0000
 ZZZY=              0.0000 XXYY=             -1.7866 XXZZ=             -2.3222 YYZZ=             -2.3507
 XXYZ=              0.0000 YYXZ=              0.0000 ZZXY=              0.0000
 N-N= 9.284300475591D+00 E-N=-1.990572585773D+02  KE= 7.597224566807D+01
 Symmetry A'   KE= 7.150827877304D+01
 Symmetry A"   KE= 4.463966895026D+00
 No NMR shielding tensors so no spin-rotation constants.
 Leave Link  601 at Mon Jan 16 22:57:18 2017, MaxMem=   33554432 cpu:       0.5
 (Enter /home/mtaweb/g09/l602.exe)
 Breneman (CHELPG) radii used.
 Generate Potential Derived Charges using the Breneman model, NDens= 1.
 Grid spacing= 0.300 Box extension= 2.800
 NStep X,Y,Z=   25     22     20   Total possible points=       11000
 Number of Points to Fit=    3956

 **********************************************************************

            Electrostatic Properties Using The SCF Density

 **********************************************************************

       Atomic Center    1 is at   0.000000  0.113443  0.000000
       Atomic Center    2 is at   0.758999 -0.453771  0.000000
       Atomic Center    3 is at  -0.758999 -0.453771  0.000000
    3956 points will be used for fitting atomic charges
 Fitting point charges to electrostatic potential
 Charges from ESP fit, RMS=   0.00332 RRMS=   0.13854:
 Charge=   0.00000 Dipole=     0.0000    -2.3327     0.0000 Tot=     2.3327
              1
     1  O   -0.856203
     2  H    0.428102
     3  H    0.428102
 -----------------------------------------------------------------

              Electrostatic Properties (Atomic Units)

 -----------------------------------------------------------------
    Center     Electric         -------- Electric Field --------
               Potential          X             Y             Z
 -----------------------------------------------------------------
    1 Atom    -22.315835
    2 Atom     -0.980989
    3 Atom     -0.980989
 -----------------------------------------------------------------
 Leave Link  602 at Mon Jan 16 22:57:18 2017, MaxMem=   33554432 cpu:       0.2
 (Enter /home/mtaweb/g09/l9999.exe)
 1\1\GINC-LAYA\FOpt\RHF\6-31+G(d)\H2O1\MTAWEB\16-Jan-2017\0\\#p HF/6-31
 +G(d) 5d 7f opt pop=(chelpg)\\H2O\\0,1\O,-0.0000532712,0.1005748419,0.
 \H,0.759026048,-0.466532466,0.\H,-0.7589727768,-0.4667453759,0.\\Versi
 on=EM64L-G09RevA.02\State=1-A'\HF=-76.0165492\RMSD=1.880e-09\RMSF=1.41
 4e-04\Dipole=0.0001264,-0.8984591,0.\Quadrupole=1.4182599,-0.2143257,-
 1.2039342,0.0002288,0.,0.\PG=CS [SG(H2O1)]\\@


 THERE ONCE WAS A GIRL NAMED IRENE,
 WHO LIVED ON DISTILLED KEROSENE,
      BUT SHE STARTED ABSORBIN'
      A NEW HYDROCARBON,
 AND SINCE THEN HAS NEVER BENZENE.
 Job cpu time:  0 days  0 hours  0 minutes 14.2 seconds.
 File lengths (MBytes):  RWF=      5 Int=      0 D2E=      0 Chk=      1 Scr=      1
 Normal termination of Gaussian 09 at Mon Jan 16 22:57:18 2017.
