          36
 Energy=   -4.0480348680522414E-004
H   -1.2436331162   2.4957868964   0.0004898876
C   -1.2433725811   1.4056959877  -0.0074628375
C    0.0000021632   0.7169645749   0.0294400083
C   -2.4380710420   0.7086520258   0.0036812599
C   -0.0000039511  -0.7169441274  -0.0294288180
C    1.2433763647   1.4056933894  -0.0074671700
C   -2.4380677187  -0.7086578203  -0.0036818280
H   -3.3829534274   1.2487831274  -0.0138162714
C   -1.2433701681  -1.4056940245   0.0074622040
C    1.2433645270  -1.4056931831   0.0074628710
C    2.4380741641   0.7086500467   0.0036834009
H    1.2436355346   2.4957846474   0.0004871592
H   -3.3829477705  -1.2487931077   0.0138054043
H   -1.2436180664  -2.4957846474  -0.0004982306
C    2.4380688829  -0.7086624823  -0.0036840869
H    1.2436104780  -2.4957840917  -0.0004955041
H    3.3829558035   1.2487821273  -0.0138119178
H    3.3829467598  -1.2488012623   0.0138094501
C   -3.0611896572   0.8078245017  -3.4988151538
C   -2.6804529829   1.3333593197  -4.8580113541
C   -3.8526543492   1.9275597825  -4.1220892535
H   -2.8848243542   0.7081075380  -5.7216621704
H   -1.7756828665   1.9274872912  -4.9394573512
H   -4.8500899394   1.7043807117  -4.4877488851
H   -3.7408838462   2.9237501725  -3.7057044411
H   -2.4140055753   1.0464935816  -2.6605611500
H   -3.5231991988  -0.1729580676  -3.4427200036
C   -3.3203328584  -2.4438212020   4.3101191771
C   -3.7307460224  -1.9682860532   2.9411820244
C   -3.3370208614  -3.4067683014   3.1520395359
H   -3.0442412824  -1.3264750143   2.3976840826
H   -4.7798052184  -1.7466753314   2.7720845619
H   -2.3841910180  -3.7382563254   2.7512595465
H   -4.1197722833  -4.1583411963   3.1255320731
H   -4.0918075011  -2.5440498805   5.0672592093
H   -2.3561655922  -2.1238553857   4.6929210705
