Title Card Required                                                     
FOpt      RMP2-FC                                                     6-31+G(d)           
Number of atoms                            I               18
Charge                                     I                0
Multiplicity                               I                1
Number of electrons                        I               68
Number of alpha electrons                  I               34
Number of beta electrons                   I               34
Number of basis functions                  I              196
Number of independant functions            I              196
Number of point charges in /Mol/           I                0
Number of translation vectors              I                0
Info1-9                                    I   N=           9
          27          27           0           0           0         100
           2           2           1
Num ILSW                                   I              100
ILSW                                       I   N=         100
           0           0           0           0           2           0
           0           0           0           0           0     1000000
           0           0           0           0           0           0
           0     1000000           0           0           1           0
           1           0           0           0     1000000           0
           0           0      100000           0          -1           0
           0           0           0           0           0           0
           0           0           0           1           0           0
           0           0           1     1000000     1000000           0
           0           0           0           0           0           0
           0           0           0           0           0           0
           0           0           0           0           0           0
           0           0           0           0           0           0
           0           0           0           0           0           0
           0           0           0           0           0           0
           0           0           0           0           0           0
           0           0           0           0
Number of contracted shells                I               66
Highest angular momentum                   I                2
Largest degree of contraction              I                6
Number of primitive shells                 I              152
Pure/Cartesian d shells                    I                0
Pure/Cartesian f shells                    I                0
Virial Ratio                               R      2.001302063370594E+00
SCF Energy                                 R     -3.833608150850880E+02
MP2 Energy                                 R     -3.846234870471520E+02
Total Energy                               R     -3.846234870471520E+02
Post-SCF wavefunction norm                 R      1.217656882721188E+00
RMS Force                                  R      2.792062336380882E-06
RMS Density                                R      3.718927155899061E-09
Atomic numbers                             I   N=          18
           1           6           6           6           6           6
           6           1           6           6           6           1
           1           1           6           1           1           1
Nuclear charges                            R   N=          18
  1.00000000E+00  6.00000000E+00  6.00000000E+00  6.00000000E+00  6.00000000E+00
  6.00000000E+00  6.00000000E+00  1.00000000E+00  6.00000000E+00  6.00000000E+00
  6.00000000E+00  1.00000000E+00  1.00000000E+00  1.00000000E+00  6.00000000E+00
  1.00000000E+00  1.00000000E+00  1.00000000E+00
Current cartesian coordinates              R   N=          54
 -2.35012582E+00  4.71635336E+00  9.25753398E-04 -2.34963348E+00  2.65638024E+00
 -1.41027180E-02  4.08781041E-06  1.35486659E+00  5.56335488E-02 -4.60728621E+00
  1.33915815E+00  6.95657253E-03 -7.46641757E-06 -1.35482795E+00 -5.56124021E-02
  2.34964063E+00  2.65637533E+00 -1.41109053E-02 -4.60727993E+00 -1.33916910E+00
 -6.95764607E-03 -6.39285501E+00  2.35985793E+00 -2.61089671E-02 -2.34962892E+00
 -2.65637653E+00  1.41015209E-02  2.34961826E+00 -2.65637494E+00  1.41027813E-02
  4.60729211E+00  1.33915441E+00  6.96061837E-03  2.35013039E+00  4.71634911E+00
  9.20597473E-04 -6.39284432E+00 -2.35987679E+00  2.60884313E-02 -2.35009738E+00
 -4.71634911E+00 -9.41519400E-04  4.60728213E+00 -1.33917791E+00 -6.96191475E-03
  2.35008304E+00 -4.71634806E+00 -9.36366942E-04  6.39285950E+00  2.35985604E+00
 -2.61007400E-02  6.39284241E+00 -2.35989220E+00  2.60960767E-02
Int Atom Types                             I   N=          18
           0           0           0           0           0           0
           0           0           0           0           0           0
           0           0           0           0           0           0
Force Field                                I                0
MM charges                                 R   N=          18
  0.00000000E+00  0.00000000E+00  0.00000000E+00  0.00000000E+00  0.00000000E+00
  0.00000000E+00  0.00000000E+00  0.00000000E+00  0.00000000E+00  0.00000000E+00
  0.00000000E+00  0.00000000E+00  0.00000000E+00  0.00000000E+00  0.00000000E+00
  0.00000000E+00  0.00000000E+00  0.00000000E+00
Integer atomic weights                     I   N=          18
           1          12          12          12          12          12
          12           1          12          12          12           1
           1           1          12           1           1           1
Real atomic weights                        R   N=          18
  1.00782504E+00  1.20000000E+01  1.20000000E+01  1.20000000E+01  1.20000000E+01
  1.20000000E+01  1.20000000E+01  1.00782504E+00  1.20000000E+01  1.20000000E+01
  1.20000000E+01  1.00782504E+00  1.00782504E+00  1.00782504E+00  1.20000000E+01
  1.00782504E+00  1.00782504E+00  1.00782504E+00
Atom residue info                          I   N=          18
           0           0           0           0           0           0
           0           0           0           0           0           0
           0           0           0           0           0           0
Atom fragment info                         I   N=          18
           0           0           0           0           0           0
           0           0           0           0           0           0
           0           0           0           0           0           0
Atom residue num                           I   N=          18
           0           0           0           0           0           0
           0           0           0           0           0           0
           0           0           0           0           0           0
Nuclear spins                              I   N=          18
           1           0           0           0           0           0
           0           1           0           0           0           1
           1           1           0           1           1           1
Nuclear ZEff                               R   N=          18
 -1.00000000E+00 -3.60000000E+00 -3.60000000E+00 -3.60000000E+00 -3.60000000E+00
 -3.60000000E+00 -3.60000000E+00 -1.00000000E+00 -3.60000000E+00 -3.60000000E+00
 -3.60000000E+00 -1.00000000E+00 -1.00000000E+00 -1.00000000E+00 -3.60000000E+00
 -1.00000000E+00 -1.00000000E+00 -1.00000000E+00
Nuclear QMom                               R   N=          18
  0.00000000E+00  0.00000000E+00  0.00000000E+00  0.00000000E+00  0.00000000E+00
  0.00000000E+00  0.00000000E+00  0.00000000E+00  0.00000000E+00  0.00000000E+00
  0.00000000E+00  0.00000000E+00  0.00000000E+00  0.00000000E+00  0.00000000E+00
  0.00000000E+00  0.00000000E+00  0.00000000E+00
Nuclear GFac                               R   N=          18
  2.79284600E+00  0.00000000E+00  0.00000000E+00  0.00000000E+00  0.00000000E+00
  0.00000000E+00  0.00000000E+00  2.79284600E+00  0.00000000E+00  0.00000000E+00
  0.00000000E+00  2.79284600E+00  2.79284600E+00  2.79284600E+00  0.00000000E+00
  2.79284600E+00  2.79284600E+00  2.79284600E+00
MicOpt                                     I   N=          18
          -1          -1          -1          -1          -1          -1
          -1          -1          -1          -1          -1          -1
          -1          -1          -1          -1          -1          -1
Constraint Structure                       R   N=          54
 -2.35141532E+00 -4.71759336E+00  9.05401139E-05 -2.35051179E+00 -2.65757267E+00
  1.16996280E-04  2.98823723E-05 -1.35605619E+00 -7.06924315E-04 -4.60744179E+00
 -1.33917662E+00 -1.90640019E-05 -2.64919826E-05  1.35604474E+00  7.02811381E-04
  2.35055046E+00 -2.65757699E+00  1.20775732E-04 -4.60746605E+00  1.33914546E+00
  1.11716163E-05 -6.39348633E+00 -2.35965498E+00  2.88961358E-04 -2.35054329E+00
  2.65756555E+00 -1.05991404E-04  2.35050573E+00  2.65758200E+00 -1.19219487E-04
  4.60746755E+00 -1.33913612E+00 -1.33948235E-05  2.35146107E+00 -4.71759202E+00
  1.07547649E-04 -6.39351413E+00  2.35961857E+00 -2.89294839E-04 -2.35145579E+00
  4.71758435E+00 -8.89838688E-05  4.60743763E+00  1.33917462E+00  1.11716163E-05
  2.35138848E+00  4.71760270E+00 -9.27633211E-05  6.39353263E+00 -2.35958466E+00
  2.85181906E-04  6.39347839E+00  2.35965676E+00 -2.91184565E-04
ONIOM Charges                              I   N=          16
           0           0           0           0           0           0
           0           0           0           0           0           0
           0           0           0           0
ONIOM Multiplicities                       I   N=          16
           1           0           0           0           0           0
           0           0           0           0           0           0
           0           0           0           0
Atom Layers                                I   N=          18
           1           1           1           1           1           1
           1           1           1           1           1           1
           1           1           1           1           1           1
Atom Modifiers                             I   N=          18
           0           0           0           0           0           0
           0           0           0           0           0           0
           0           0           0           0           0           0
Int Atom Modified Types                    I   N=          18
           0           0           0           0           0           0
           0           0           0           0           0           0
           0           0           0           0           0           0
Link Atoms                                 I   N=          18
           0           0           0           0           0           0
           0           0           0           0           0           0
           0           0           0           0           0           0
Atom Modified MM Charges                   R   N=          18
  0.00000000E+00  0.00000000E+00  0.00000000E+00  0.00000000E+00  0.00000000E+00
  0.00000000E+00  0.00000000E+00  0.00000000E+00  0.00000000E+00  0.00000000E+00
  0.00000000E+00  0.00000000E+00  0.00000000E+00  0.00000000E+00  0.00000000E+00
  0.00000000E+00  0.00000000E+00  0.00000000E+00
Link Distances                             R   N=          72
  0.00000000E+00  0.00000000E+00  0.00000000E+00  0.00000000E+00  0.00000000E+00
  0.00000000E+00  0.00000000E+00  0.00000000E+00  0.00000000E+00  0.00000000E+00
  0.00000000E+00  0.00000000E+00  0.00000000E+00  0.00000000E+00  0.00000000E+00
  0.00000000E+00  0.00000000E+00  0.00000000E+00  0.00000000E+00  0.00000000E+00
  0.00000000E+00  0.00000000E+00  0.00000000E+00  0.00000000E+00  0.00000000E+00
  0.00000000E+00  0.00000000E+00  0.00000000E+00  0.00000000E+00  0.00000000E+00
  0.00000000E+00  0.00000000E+00  0.00000000E+00  0.00000000E+00  0.00000000E+00
  0.00000000E+00  0.00000000E+00  0.00000000E+00  0.00000000E+00  0.00000000E+00
  0.00000000E+00  0.00000000E+00  0.00000000E+00  0.00000000E+00  0.00000000E+00
  0.00000000E+00  0.00000000E+00  0.00000000E+00  0.00000000E+00  0.00000000E+00
  0.00000000E+00  0.00000000E+00  0.00000000E+00  0.00000000E+00  0.00000000E+00
  0.00000000E+00  0.00000000E+00  0.00000000E+00  0.00000000E+00  0.00000000E+00
  0.00000000E+00  0.00000000E+00  0.00000000E+00  0.00000000E+00  0.00000000E+00
  0.00000000E+00  0.00000000E+00  0.00000000E+00  0.00000000E+00  0.00000000E+00
  0.00000000E+00  0.00000000E+00
MxBond                                     I                3
NBond                                      I   N=          18
           1           3           3           3           3           3
           3           1           3           3           3           1
           1           1           3           1           1           1
IBond                                      I   N=          54
           2           0           0           1           3           4
           2           5           6           2           7           8
           3           9          10           3          11          12
           4           9          13           4           0           0
           5           7          14           5          15          16
           6          15          17           6           0           0
           7           0           0           9           0           0
          10          11          18          10           0           0
          11           0           0          15           0           0
RBond                                      R   N=          54
  1.00000000E+00  0.00000000E+00  0.00000000E+00  1.00000000E+00  1.50000000E+00
  1.50000000E+00  1.50000000E+00  1.00000000E+00  1.50000000E+00  1.50000000E+00
  1.50000000E+00  1.00000000E+00  1.00000000E+00  1.50000000E+00  1.50000000E+00
  1.50000000E+00  1.50000000E+00  1.00000000E+00  1.50000000E+00  1.50000000E+00
  1.00000000E+00  1.00000000E+00  0.00000000E+00  0.00000000E+00  1.50000000E+00
  1.50000000E+00  1.00000000E+00  1.50000000E+00  1.50000000E+00  1.00000000E+00
  1.50000000E+00  1.50000000E+00  1.00000000E+00  1.00000000E+00  0.00000000E+00
  0.00000000E+00  1.00000000E+00  0.00000000E+00  0.00000000E+00  1.00000000E+00
  0.00000000E+00  0.00000000E+00  1.50000000E+00  1.50000000E+00  1.00000000E+00
  1.00000000E+00  0.00000000E+00  0.00000000E+00  1.00000000E+00  0.00000000E+00
  0.00000000E+00  1.00000000E+00  0.00000000E+00  0.00000000E+00
Shell types                                I   N=          66
           0           0           0          -1          -1          -1
          -2           0          -1          -1          -1          -2
           0          -1          -1          -1          -2           0
          -1          -1          -1          -2           0          -1
          -1          -1          -2           0          -1          -1
          -1          -2           0           0           0          -1
          -1          -1          -2           0          -1          -1
          -1          -2           0          -1          -1          -1
          -2           0           0           0           0           0
           0           0          -1          -1          -1          -2
           0           0           0           0           0           0
Number of primitives per shell             I   N=          66
           3           1           6           3           1           1
           1           6           3           1           1           1
           6           3           1           1           1           6
           3           1           1           1           6           3
           1           1           1           6           3           1
           1           1           3           1           6           3
           1           1           1           6           3           1
           1           1           6           3           1           1
           1           3           1           3           1           3
           1           6           3           1           1           1
           3           1           3           1           3           1
Shell to atom map                          I   N=          66
           1           1           2           2           2           2
           2           3           3           3           3           3
           4           4           4           4           4           5
           5           5           5           5           6           6
           6           6           6           7           7           7
           7           7           8           8           9           9
           9           9           9          10          10          10
          10          10          11          11          11          11
          11          12          12          13          13          14
          14          15          15          15          15          15
          16          16          17          17          18          18
Primitive exponents                        R   N=         152
  1.87311370E+01  2.82539436E+00  6.40121692E-01  1.61277759E-01  3.04752488E+03
  4.57369518E+02  1.03948685E+02  2.92101553E+01  9.28666296E+00  3.16392696E+00
  7.86827235E+00  1.88128854E+00  5.44249258E-01  1.68714478E-01  4.38000000E-02
  8.00000000E-01  3.04752488E+03  4.57369518E+02  1.03948685E+02  2.92101553E+01
  9.28666296E+00  3.16392696E+00  7.86827235E+00  1.88128854E+00  5.44249258E-01
  1.68714478E-01  4.38000000E-02  8.00000000E-01  3.04752488E+03  4.57369518E+02
  1.03948685E+02  2.92101553E+01  9.28666296E+00  3.16392696E+00  7.86827235E+00
  1.88128854E+00  5.44249258E-01  1.68714478E-01  4.38000000E-02  8.00000000E-01
  3.04752488E+03  4.57369518E+02  1.03948685E+02  2.92101553E+01  9.28666296E+00
  3.16392696E+00  7.86827235E+00  1.88128854E+00  5.44249258E-01  1.68714478E-01
  4.38000000E-02  8.00000000E-01  3.04752488E+03  4.57369518E+02  1.03948685E+02
  2.92101553E+01  9.28666296E+00  3.16392696E+00  7.86827235E+00  1.88128854E+00
  5.44249258E-01  1.68714478E-01  4.38000000E-02  8.00000000E-01  3.04752488E+03
  4.57369518E+02  1.03948685E+02  2.92101553E+01  9.28666296E+00  3.16392696E+00
  7.86827235E+00  1.88128854E+00  5.44249258E-01  1.68714478E-01  4.38000000E-02
  8.00000000E-01  1.87311370E+01  2.82539436E+00  6.40121692E-01  1.61277759E-01
  3.04752488E+03  4.57369518E+02  1.03948685E+02  2.92101553E+01  9.28666296E+00
  3.16392696E+00  7.86827235E+00  1.88128854E+00  5.44249258E-01  1.68714478E-01
  4.38000000E-02  8.00000000E-01  3.04752488E+03  4.57369518E+02  1.03948685E+02
  2.92101553E+01  9.28666296E+00  3.16392696E+00  7.86827235E+00  1.88128854E+00
  5.44249258E-01  1.68714478E-01  4.38000000E-02  8.00000000E-01  3.04752488E+03
  4.57369518E+02  1.03948685E+02  2.92101553E+01  9.28666296E+00  3.16392696E+00
  7.86827235E+00  1.88128854E+00  5.44249258E-01  1.68714478E-01  4.38000000E-02
  8.00000000E-01  1.87311370E+01  2.82539436E+00  6.40121692E-01  1.61277759E-01
  1.87311370E+01  2.82539436E+00  6.40121692E-01  1.61277759E-01  1.87311370E+01
  2.82539436E+00  6.40121692E-01  1.61277759E-01  3.04752488E+03  4.57369518E+02
  1.03948685E+02  2.92101553E+01  9.28666296E+00  3.16392696E+00  7.86827235E+00
  1.88128854E+00  5.44249258E-01  1.68714478E-01  4.38000000E-02  8.00000000E-01
  1.87311370E+01  2.82539436E+00  6.40121692E-01  1.61277759E-01  1.87311370E+01
  2.82539436E+00  6.40121692E-01  1.61277759E-01  1.87311370E+01  2.82539436E+00
  6.40121692E-01  1.61277759E-01
Contraction coefficients                   R   N=         152
  3.34946043E-02  2.34726953E-01  8.13757326E-01  1.00000000E+00  1.83473713E-03
  1.40373228E-02  6.88426223E-02  2.32184443E-01  4.67941348E-01  3.62311985E-01
 -1.19332420E-01 -1.60854152E-01  1.14345644E+00  1.00000000E+00  1.00000000E+00
  1.00000000E+00  1.83473713E-03  1.40373228E-02  6.88426223E-02  2.32184443E-01
  4.67941348E-01  3.62311985E-01 -1.19332420E-01 -1.60854152E-01  1.14345644E+00
  1.00000000E+00  1.00000000E+00  1.00000000E+00  1.83473713E-03  1.40373228E-02
  6.88426223E-02  2.32184443E-01  4.67941348E-01  3.62311985E-01 -1.19332420E-01
 -1.60854152E-01  1.14345644E+00  1.00000000E+00  1.00000000E+00  1.00000000E+00
  1.83473713E-03  1.40373228E-02  6.88426223E-02  2.32184443E-01  4.67941348E-01
  3.62311985E-01 -1.19332420E-01 -1.60854152E-01  1.14345644E+00  1.00000000E+00
  1.00000000E+00  1.00000000E+00  1.83473713E-03  1.40373228E-02  6.88426223E-02
  2.32184443E-01  4.67941348E-01  3.62311985E-01 -1.19332420E-01 -1.60854152E-01
  1.14345644E+00  1.00000000E+00  1.00000000E+00  1.00000000E+00  1.83473713E-03
  1.40373228E-02  6.88426223E-02  2.32184443E-01  4.67941348E-01  3.62311985E-01
 -1.19332420E-01 -1.60854152E-01  1.14345644E+00  1.00000000E+00  1.00000000E+00
  1.00000000E+00  3.34946043E-02  2.34726953E-01  8.13757326E-01  1.00000000E+00
  1.83473713E-03  1.40373228E-02  6.88426223E-02  2.32184443E-01  4.67941348E-01
  3.62311985E-01 -1.19332420E-01 -1.60854152E-01  1.14345644E+00  1.00000000E+00
  1.00000000E+00  1.00000000E+00  1.83473713E-03  1.40373228E-02  6.88426223E-02
  2.32184443E-01  4.67941348E-01  3.62311985E-01 -1.19332420E-01 -1.60854152E-01
  1.14345644E+00  1.00000000E+00  1.00000000E+00  1.00000000E+00  1.83473713E-03
  1.40373228E-02  6.88426223E-02  2.32184443E-01  4.67941348E-01  3.62311985E-01
 -1.19332420E-01 -1.60854152E-01  1.14345644E+00  1.00000000E+00  1.00000000E+00
  1.00000000E+00  3.34946043E-02  2.34726953E-01  8.13757326E-01  1.00000000E+00
  3.34946043E-02  2.34726953E-01  8.13757326E-01  1.00000000E+00  3.34946043E-02
  2.34726953E-01  8.13757326E-01  1.00000000E+00  1.83473713E-03  1.40373228E-02
  6.88426223E-02  2.32184443E-01  4.67941348E-01  3.62311985E-01 -1.19332420E-01
 -1.60854152E-01  1.14345644E+00  1.00000000E+00  1.00000000E+00  1.00000000E+00
  3.34946043E-02  2.34726953E-01  8.13757326E-01  1.00000000E+00  3.34946043E-02
  2.34726953E-01  8.13757326E-01  1.00000000E+00  3.34946043E-02  2.34726953E-01
  8.13757326E-01  1.00000000E+00
P(S=P) Contraction coefficients            R   N=         152
  0.00000000E+00  0.00000000E+00  0.00000000E+00  0.00000000E+00  0.00000000E+00
  0.00000000E+00  0.00000000E+00  0.00000000E+00  0.00000000E+00  0.00000000E+00
  6.89990666E-02  3.16423961E-01  7.44308291E-01  1.00000000E+00  1.00000000E+00
  0.00000000E+00  0.00000000E+00  0.00000000E+00  0.00000000E+00  0.00000000E+00
  0.00000000E+00  0.00000000E+00  6.89990666E-02  3.16423961E-01  7.44308291E-01
  1.00000000E+00  1.00000000E+00  0.00000000E+00  0.00000000E+00  0.00000000E+00
  0.00000000E+00  0.00000000E+00  0.00000000E+00  0.00000000E+00  6.89990666E-02
  3.16423961E-01  7.44308291E-01  1.00000000E+00  1.00000000E+00  0.00000000E+00
  0.00000000E+00  0.00000000E+00  0.00000000E+00  0.00000000E+00  0.00000000E+00
  0.00000000E+00  6.89990666E-02  3.16423961E-01  7.44308291E-01  1.00000000E+00
  1.00000000E+00  0.00000000E+00  0.00000000E+00  0.00000000E+00  0.00000000E+00
  0.00000000E+00  0.00000000E+00  0.00000000E+00  6.89990666E-02  3.16423961E-01
  7.44308291E-01  1.00000000E+00  1.00000000E+00  0.00000000E+00  0.00000000E+00
  0.00000000E+00  0.00000000E+00  0.00000000E+00  0.00000000E+00  0.00000000E+00
  6.89990666E-02  3.16423961E-01  7.44308291E-01  1.00000000E+00  1.00000000E+00
  0.00000000E+00  0.00000000E+00  0.00000000E+00  0.00000000E+00  0.00000000E+00
  0.00000000E+00  0.00000000E+00  0.00000000E+00  0.00000000E+00  0.00000000E+00
  0.00000000E+00  6.89990666E-02  3.16423961E-01  7.44308291E-01  1.00000000E+00
  1.00000000E+00  0.00000000E+00  0.00000000E+00  0.00000000E+00  0.00000000E+00
  0.00000000E+00  0.00000000E+00  0.00000000E+00  6.89990666E-02  3.16423961E-01
  7.44308291E-01  1.00000000E+00  1.00000000E+00  0.00000000E+00  0.00000000E+00
  0.00000000E+00  0.00000000E+00  0.00000000E+00  0.00000000E+00  0.00000000E+00
  6.89990666E-02  3.16423961E-01  7.44308291E-01  1.00000000E+00  1.00000000E+00
  0.00000000E+00  0.00000000E+00  0.00000000E+00  0.00000000E+00  0.00000000E+00
  0.00000000E+00  0.00000000E+00  0.00000000E+00  0.00000000E+00  0.00000000E+00
  0.00000000E+00  0.00000000E+00  0.00000000E+00  0.00000000E+00  0.00000000E+00
  0.00000000E+00  0.00000000E+00  0.00000000E+00  0.00000000E+00  6.89990666E-02
  3.16423961E-01  7.44308291E-01  1.00000000E+00  1.00000000E+00  0.00000000E+00
  0.00000000E+00  0.00000000E+00  0.00000000E+00  0.00000000E+00  0.00000000E+00
  0.00000000E+00  0.00000000E+00  0.00000000E+00  0.00000000E+00  0.00000000E+00
  0.00000000E+00  0.00000000E+00
Coordinates of each shell                  R   N=         198
 -2.35012582E+00  4.71635336E+00  9.25753398E-04 -2.35012582E+00  4.71635336E+00
  9.25753398E-04 -2.34963348E+00  2.65638024E+00 -1.41027180E-02 -2.34963348E+00
  2.65638024E+00 -1.41027180E-02 -2.34963348E+00  2.65638024E+00 -1.41027180E-02
 -2.34963348E+00  2.65638024E+00 -1.41027180E-02 -2.34963348E+00  2.65638024E+00
 -1.41027180E-02  4.08781041E-06  1.35486659E+00  5.56335488E-02  4.08781041E-06
  1.35486659E+00  5.56335488E-02  4.08781041E-06  1.35486659E+00  5.56335488E-02
  4.08781041E-06  1.35486659E+00  5.56335488E-02  4.08781041E-06  1.35486659E+00
  5.56335488E-02 -4.60728621E+00  1.33915815E+00  6.95657253E-03 -4.60728621E+00
  1.33915815E+00  6.95657253E-03 -4.60728621E+00  1.33915815E+00  6.95657253E-03
 -4.60728621E+00  1.33915815E+00  6.95657253E-03 -4.60728621E+00  1.33915815E+00
  6.95657253E-03 -7.46641757E-06 -1.35482795E+00 -5.56124021E-02 -7.46641757E-06
 -1.35482795E+00 -5.56124021E-02 -7.46641757E-06 -1.35482795E+00 -5.56124021E-02
 -7.46641757E-06 -1.35482795E+00 -5.56124021E-02 -7.46641757E-06 -1.35482795E+00
 -5.56124021E-02  2.34964063E+00  2.65637533E+00 -1.41109053E-02  2.34964063E+00
  2.65637533E+00 -1.41109053E-02  2.34964063E+00  2.65637533E+00 -1.41109053E-02
  2.34964063E+00  2.65637533E+00 -1.41109053E-02  2.34964063E+00  2.65637533E+00
 -1.41109053E-02 -4.60727993E+00 -1.33916910E+00 -6.95764607E-03 -4.60727993E+00
 -1.33916910E+00 -6.95764607E-03 -4.60727993E+00 -1.33916910E+00 -6.95764607E-03
 -4.60727993E+00 -1.33916910E+00 -6.95764607E-03 -4.60727993E+00 -1.33916910E+00
 -6.95764607E-03 -6.39285501E+00  2.35985793E+00 -2.61089671E-02 -6.39285501E+00
  2.35985793E+00 -2.61089671E-02 -2.34962892E+00 -2.65637653E+00  1.41015209E-02
 -2.34962892E+00 -2.65637653E+00  1.41015209E-02 -2.34962892E+00 -2.65637653E+00
  1.41015209E-02 -2.34962892E+00 -2.65637653E+00  1.41015209E-02 -2.34962892E+00
 -2.65637653E+00  1.41015209E-02  2.34961826E+00 -2.65637494E+00  1.41027813E-02
  2.34961826E+00 -2.65637494E+00  1.41027813E-02  2.34961826E+00 -2.65637494E+00
  1.41027813E-02  2.34961826E+00 -2.65637494E+00  1.41027813E-02  2.34961826E+00
 -2.65637494E+00  1.41027813E-02  4.60729211E+00  1.33915441E+00  6.96061837E-03
  4.60729211E+00  1.33915441E+00  6.96061837E-03  4.60729211E+00  1.33915441E+00
  6.96061837E-03  4.60729211E+00  1.33915441E+00  6.96061837E-03  4.60729211E+00
  1.33915441E+00  6.96061837E-03  2.35013039E+00  4.71634911E+00  9.20597473E-04
  2.35013039E+00  4.71634911E+00  9.20597473E-04 -6.39284432E+00 -2.35987679E+00
  2.60884313E-02 -6.39284432E+00 -2.35987679E+00  2.60884313E-02 -2.35009738E+00
 -4.71634911E+00 -9.41519400E-04 -2.35009738E+00 -4.71634911E+00 -9.41519400E-04
  4.60728213E+00 -1.33917791E+00 -6.96191475E-03  4.60728213E+00 -1.33917791E+00
 -6.96191475E-03  4.60728213E+00 -1.33917791E+00 -6.96191475E-03  4.60728213E+00
 -1.33917791E+00 -6.96191475E-03  4.60728213E+00 -1.33917791E+00 -6.96191475E-03
  2.35008304E+00 -4.71634806E+00 -9.36366942E-04  2.35008304E+00 -4.71634806E+00
 -9.36366942E-04  6.39285950E+00  2.35985604E+00 -2.61007400E-02  6.39285950E+00
  2.35985604E+00 -2.61007400E-02  6.39284241E+00 -2.35989220E+00  2.60960767E-02
  6.39284241E+00 -2.35989220E+00  2.60960767E-02
Alpha Orbital Energies                     R   N=         196
 -1.12519665E+01 -1.12510086E+01 -1.12450373E+01 -1.12449880E+01 -1.12448095E+01
 -1.12447239E+01 -1.12437508E+01 -1.12437217E+01 -1.12429762E+01 -1.12429648E+01
 -1.17707145E+00 -1.10975027E+00 -1.05215225E+00 -1.01063472E+00 -9.81826454E-01
 -8.56569725E-01 -8.37520993E-01 -8.13017766E-01 -7.09352991E-01 -6.99790965E-01
 -6.77742662E-01 -6.26631075E-01 -6.12929778E-01 -5.85289403E-01 -5.85063138E-01
 -5.65933033E-01 -5.31656151E-01 -5.27743395E-01 -4.90890181E-01 -4.80798569E-01
 -4.46313116E-01 -3.85349620E-01 -3.20059045E-01 -2.87680093E-01  7.29875249E-02
  7.54980522E-02  7.56744871E-02  7.92514144E-02  9.33551671E-02  9.39629711E-02
  1.01293846E-01  1.07976382E-01  1.12854118E-01  1.17500318E-01  1.29944297E-01
  1.38225693E-01  1.42616984E-01  1.48811322E-01  1.57200938E-01  1.64585131E-01
  1.70191655E-01  1.89307411E-01  1.92158723E-01  2.01723307E-01  2.12826236E-01
  2.13293744E-01  2.19018576E-01  2.26426976E-01  2.35154468E-01  2.41596204E-01
  2.42212353E-01  2.50156801E-01  2.56519191E-01  2.69712268E-01  2.85271051E-01
  2.87142900E-01  2.97581266E-01  3.00026538E-01  3.02381105E-01  3.05446419E-01
  3.13411512E-01  3.13886338E-01  3.18052944E-01  3.20390665E-01  3.52118242E-01
  3.53260435E-01  3.56899136E-01  3.72865825E-01  3.82716080E-01  3.88862089E-01
  4.03454151E-01  4.17349407E-01  4.24067295E-01  4.28615998E-01  4.33459173E-01
  4.45845214E-01  4.58602613E-01  4.80954597E-01  4.96798533E-01  5.34206005E-01
  5.35703525E-01  5.39222677E-01  5.59357597E-01  6.01182264E-01  7.53952599E-01
  7.56080019E-01  7.99994098E-01  8.52594883E-01  8.55458580E-01  8.72580092E-01
  8.92662415E-01  9.27755157E-01  9.47431596E-01  9.50111263E-01  9.57158179E-01
  9.64542383E-01  9.70972057E-01  9.71292379E-01  9.99153618E-01  1.00070768E+00