          45
 Energy=   -2.8394397498302708E-004
H   -1.2436331162   2.4957868964   0.0004898876
C   -1.2433725811   1.4056959877  -0.0074628375
C    0.0000021632   0.7169645749   0.0294400083
C   -2.4380710420   0.7086520258   0.0036812599
C   -0.0000039511  -0.7169441274  -0.0294288180
C    1.2433763647   1.4056933894  -0.0074671700
C   -2.4380677187  -0.7086578203  -0.0036818280
H   -3.3829534274   1.2487831274  -0.0138162714
C   -1.2433701681  -1.4056940245   0.0074622040
C    1.2433645270  -1.4056931831   0.0074628710
C    2.4380741641   0.7086500467   0.0036834009
H    1.2436355346   2.4957846474   0.0004871592
H   -3.3829477705  -1.2487931077   0.0138054043
H   -1.2436180664  -2.4957846474  -0.0004982306
C    2.4380688829  -0.7086624823  -0.0036840869
H    1.2436104780  -2.4957840917  -0.0004955041
H    3.3829558035   1.2487821273  -0.0138119178
H    3.3829467598  -1.2488012623   0.0138094501
C    1.3533804444  -4.9214102469   0.6495113538
C    2.0660036627  -5.9034677229  -0.2426826798
C    0.9785878918  -5.0263091562  -0.8054252952
H    1.8520301257  -6.9595408244  -0.1114104799
H    3.0920280229  -5.6858891801  -0.5227403174
H    0.0287392061  -5.4890150386  -1.0548088575
H    1.2688345800  -4.2153735249  -1.4661585865
H    1.8971549802  -4.0394520201   0.9732975807
H    0.6571712144  -5.3130066797   1.3846472748
C   -1.8393951914  -1.7416659524  -4.7517666365
C   -1.2874723337  -3.0026213134  -4.1402126178
C   -1.2001788096  -1.7002374519  -3.3886225108
H   -0.3727079021  -3.4128479845  -4.5566357484
H   -1.9925382928  -3.7485226457  -3.7868193294
H   -0.2263442759  -1.2293437945  -3.2965710301
H   -1.8461746666  -1.5650184557  -2.5267546112
H   -2.9178953090  -1.6345704626  -4.8122469052
H   -1.2981623462  -1.2988770514  -5.5820758241
C    1.3658500219  -1.2976865620   3.4708019504
C    2.2675282392  -1.7801569840   4.5765868550
C    1.7289173854  -0.3738862075   4.6036085560
H    3.3205937797  -1.9182630170   4.3516871627
H    1.8642742089  -2.4940530788   5.2880334683
H    2.4174502004   0.4395269718   4.3970288311
H    0.9612246561  -0.1362319793   5.3333889625
H    0.3524451983  -1.6852048505   3.4341176209
H    1.8087307296  -1.1093281789   2.4978079222
