          45
 Energy=    0.0000000000000000     
H   -1.2436331162   2.4957868964   0.0004898876
C   -1.2433725811   1.4056959877  -0.0074628375
C    0.0000021632   0.7169645749   0.0294400083
C   -2.4380710420   0.7086520258   0.0036812599
C   -0.0000039511  -0.7169441274  -0.0294288180
C    1.2433763647   1.4056933894  -0.0074671700
C   -2.4380677187  -0.7086578203  -0.0036818280
H   -3.3829534274   1.2487831274  -0.0138162714
C   -1.2433701681  -1.4056940245   0.0074622040
C    1.2433645270  -1.4056931831   0.0074628710
C    2.4380741641   0.7086500467   0.0036834009
H    1.2436355346   2.4957846474   0.0004871592
H   -3.3829477705  -1.2487931077   0.0138054043
H   -1.2436180664  -2.4957846474  -0.0004982306
C    2.4380688829  -0.7086624823  -0.0036840869
H    1.2436104780  -2.4957840917  -0.0004955041
H    3.3829558035   1.2487821273  -0.0138119178
H    3.3829467598  -1.2488012623   0.0138094501
C    3.2806000007 -10.4328000023  -0.4358000001
C    4.2522000009  -9.9174000022  -1.4647000003
C    3.2153000007  -8.9950000020  -0.8794000002
H    4.1245000009 -10.2405000023  -2.4931000006
H    5.2860000012  -9.7777000022  -1.1643000003
H    2.3859000005  -8.6941000019  -1.5119000003
H    3.5475000008  -8.2313000018  -0.1831000000
H    3.6569000008 -10.6420000024   0.5607000001
H    2.4954000006 -11.1048000025  -0.7680000002
C   -2.3336000005  -2.6698000006  -5.6649000013
C   -1.1325000003  -2.9899000007  -6.5155000015
C   -1.6547000004  -1.5786000004  -6.4503000014
H   -1.2916000003  -3.5502000008  -7.4316000017
H   -0.1961000000  -3.2104000007  -6.0126000013
H   -2.1671000005  -1.1841000003  -7.3223000016
H   -1.0716000002  -0.8443000002  -5.9033000013
H   -2.2098000005  -2.6739000006  -4.5865000010
H   -3.3053000007  -3.0137000007  -6.0054000013
C    0.3670000001  -0.0847000000   7.9374000018
C    1.5681000003  -0.4047000001   7.0868000016
C    1.0459000002   1.0065000002   7.1520000016
H    1.4090000003  -0.9651000002   6.1707000014
H    2.5045000006  -0.6253000001   7.5897000017
H    0.5335000001   1.4010000003   6.2801000014
H    1.6290000004   1.7408000004   7.6990000017
H    0.4908000001  -0.0888000000   9.0159000020
H   -0.6047000001  -0.4285000001   7.5969000017
